
     Program PWSCF v.6.5 starts on 28Dec2019 at 20: 3:44 

     This program is part of the open-source Quantum ESPRESSO suite
     for quantum simulation of materials; please cite
         "P. Giannozzi et al., J. Phys.:Condens. Matter 21 395502 (2009);
         "P. Giannozzi et al., J. Phys.:Condens. Matter 29 465901 (2017);
          URL http://www.quantum-espresso.org", 
     in publications or presentations arising from this work. More details at
     http://www.quantum-espresso.org/quote

     Parallel version (MPI), running on     2 processors

     MPI processes distributed on     1 nodes
     R & G space division:  proc/nbgrp/npool/nimage =       2
     Reading input from antimonene_flat.1_scf.in

     Current dimensions of program PWSCF are:
     Max number of different atomic species (ntypx) = 10
     Max number of k-points (npk) =  40000
     Max angular momentum in pseudopotentials (lmaxx) =  3
               file Sb.pbe-n-kjpaw_psl.1.0.0.UPF: wavefunction(s)  5S renormalized

     Subspace diagonalization in iterative solution of the eigenvalue problem:
     a serial algorithm will be used

 
     Parallelization info
     --------------------
     sticks:   dense  smooth     PW     G-vecs:    dense   smooth      PW
     Min        1388    1388    377               594777   594777   84080
     Max        1391    1391    380               594782   594782   84085
     Sum        2779    2779    757              1189559  1189559  168165
 


     bravais-lattice index     =            4
     lattice parameter (alat)  =       9.5859  a.u.
     unit-cell volume          =    7634.4429 (a.u.)^3
     number of atoms/cell      =            2
     number of atomic types    =            1
     number of electrons       =        10.00
     number of Kohn-Sham states=           19
     kinetic-energy cutoff     =     110.0000  Ry
     charge density cutoff     =     440.0000  Ry
     convergence threshold     =      1.0E-08
     mixing beta               =       0.3000
     number of iterations used =            8  plain     mixing
     Exchange-correlation= SLA PW PBX PBC
                           (   1   4   3   4   0   0   0)

     celldm(1)=   9.585900  celldm(2)=   0.000000  celldm(3)=  10.008017
     celldm(4)=   0.000000  celldm(5)=   0.000000  celldm(6)=   0.000000

     crystal axes: (cart. coord. in units of alat)
               a(1) = (   1.000000   0.000000   0.000000 )  
               a(2) = (  -0.500000   0.866025   0.000000 )  
               a(3) = (   0.000000   0.000000  10.008017 )  

     reciprocal axes: (cart. coord. in units 2 pi/alat)
               b(1) = (  1.000000  0.577350  0.000000 )  
               b(2) = (  0.000000  1.154701  0.000000 )  
               b(3) = (  0.000000  0.000000  0.099920 )  


     PseudoPot. # 1 for Sb read from file:
     /home/ubuntu/quantum_espresso_2019/pslibrary.1.0.0/Sb.pbe-n-kjpaw_psl.1.0.0.UPF
     MD5 check sum: d18e3983e67b3626a8ae63dba1d03fb4
     Pseudo is Projector augmented-wave + core cor, Zval =  5.0
     Generated using "atomic" code by A. Dal Corso v.6.5
     Shape of augmentation charge: PSQ
     Using radial grid of 1243 points,  6 beta functions with: 
                l(1) =   0
                l(2) =   0
                l(3) =   1
                l(4) =   1
                l(5) =   2
                l(6) =   2
     Q(r) pseudized with 0 coefficients 


     atomic species   valence    mass     pseudopotential
        Sb             5.00   121.76000     Sb( 1.00)

     24 Sym. Ops., with inversion, found


                                    s                        frac. trans.

      isym =  1     identity                                     

 cryst.   s( 1) = (     1          0          0      )
                  (     0          1          0      )
                  (     0          0          1      )

 cart.    s( 1) = (  1.0000000  0.0000000  0.0000000 )
                  (  0.0000000  1.0000000  0.0000000 )
                  (  0.0000000  0.0000000  1.0000000 )


      isym =  2     180 deg rotation - cart. axis [0,0,1]        

 cryst.   s( 2) = (    -1          0          0      )
                  (     0         -1          0      )
                  (     0          0          1      )

 cart.    s( 2) = ( -1.0000000  0.0000000  0.0000000 )
                  (  0.0000000 -1.0000000  0.0000000 )
                  (  0.0000000  0.0000000  1.0000000 )


      isym =  3     180 deg rotation - cart. axis [0,1,0]        

 cryst.   s( 3) = (    -1          0          0      )
                  (     1          1          0      )
                  (     0          0         -1      )

 cart.    s( 3) = ( -1.0000000  0.0000000  0.0000000 )
                  (  0.0000000  1.0000000  0.0000000 )
                  (  0.0000000  0.0000000 -1.0000000 )


      isym =  4     180 deg rotation - cart. axis [1,0,0]        

 cryst.   s( 4) = (     1          0          0      )
                  (    -1         -1          0      )
                  (     0          0         -1      )

 cart.    s( 4) = (  1.0000000  0.0000000  0.0000000 )
                  (  0.0000000 -1.0000000  0.0000000 )
                  (  0.0000000  0.0000000 -1.0000000 )


      isym =  5      60 deg rotation - cryst. axis [0,0,1]       

 cryst.   s( 5) = (     1          1          0      )
                  (    -1          0          0      )
                  (     0          0          1      )

 cart.    s( 5) = (  0.5000000 -0.8660254  0.0000000 )
                  (  0.8660254  0.5000000  0.0000000 )
                  (  0.0000000  0.0000000  1.0000000 )


      isym =  6      60 deg rotation - cryst. axis [0,0,-1]      

 cryst.   s( 6) = (     0         -1          0      )
                  (     1          1          0      )
                  (     0          0          1      )

 cart.    s( 6) = (  0.5000000  0.8660254  0.0000000 )
                  ( -0.8660254  0.5000000  0.0000000 )
                  (  0.0000000  0.0000000  1.0000000 )


      isym =  7     120 deg rotation - cryst. axis [0,0,1]       

 cryst.   s( 7) = (     0          1          0      )
                  (    -1         -1          0      )
                  (     0          0          1      )

 cart.    s( 7) = ( -0.5000000 -0.8660254  0.0000000 )
                  (  0.8660254 -0.5000000  0.0000000 )
                  (  0.0000000  0.0000000  1.0000000 )


      isym =  8     120 deg rotation - cryst. axis [0,0,-1]      

 cryst.   s( 8) = (    -1         -1          0      )
                  (     1          0          0      )
                  (     0          0          1      )

 cart.    s( 8) = ( -0.5000000  0.8660254  0.0000000 )
                  ( -0.8660254 -0.5000000  0.0000000 )
                  (  0.0000000  0.0000000  1.0000000 )


      isym =  9     180 deg rotation - cryst. axis [1,-1,0]      

 cryst.   s( 9) = (     0         -1          0      )
                  (    -1          0          0      )
                  (     0          0         -1      )

 cart.    s( 9) = (  0.5000000 -0.8660254  0.0000000 )
                  ( -0.8660254 -0.5000000  0.0000000 )
                  (  0.0000000  0.0000000 -1.0000000 )


      isym = 10     180 deg rotation - cryst. axis [2,1,0]       

 cryst.   s(10) = (     1          1          0      )
                  (     0         -1          0      )
                  (     0          0         -1      )

 cart.    s(10) = (  0.5000000  0.8660254  0.0000000 )
                  (  0.8660254 -0.5000000  0.0000000 )
                  (  0.0000000  0.0000000 -1.0000000 )


      isym = 11     180 deg rotation - cryst. axis [0,1,0]       

 cryst.   s(11) = (    -1         -1          0      )
                  (     0          1          0      )
                  (     0          0         -1      )

 cart.    s(11) = ( -0.5000000 -0.8660254  0.0000000 )
                  ( -0.8660254  0.5000000  0.0000000 )
                  (  0.0000000  0.0000000 -1.0000000 )


      isym = 12     180 deg rotation - cryst. axis [1,1,0]       

 cryst.   s(12) = (     0          1          0      )
                  (     1          0          0      )
                  (     0          0         -1      )

 cart.    s(12) = ( -0.5000000  0.8660254  0.0000000 )
                  (  0.8660254  0.5000000  0.0000000 )
                  (  0.0000000  0.0000000 -1.0000000 )


      isym = 13     inversion                                    

 cryst.   s(13) = (    -1          0          0      )
                  (     0         -1          0      )
                  (     0          0         -1      )

 cart.    s(13) = ( -1.0000000  0.0000000  0.0000000 )
                  (  0.0000000 -1.0000000  0.0000000 )
                  (  0.0000000  0.0000000 -1.0000000 )


      isym = 14     inv. 180 deg rotation - cart. axis [0,0,1]   

 cryst.   s(14) = (     1          0          0      )
                  (     0          1          0      )
                  (     0          0         -1      )

 cart.    s(14) = (  1.0000000  0.0000000  0.0000000 )
                  (  0.0000000  1.0000000  0.0000000 )
                  (  0.0000000  0.0000000 -1.0000000 )


      isym = 15     inv. 180 deg rotation - cart. axis [0,1,0]   

 cryst.   s(15) = (     1          0          0      )
                  (    -1         -1          0      )
                  (     0          0          1      )

 cart.    s(15) = (  1.0000000  0.0000000  0.0000000 )
                  (  0.0000000 -1.0000000  0.0000000 )
                  (  0.0000000  0.0000000  1.0000000 )


      isym = 16     inv. 180 deg rotation - cart. axis [1,0,0]   

 cryst.   s(16) = (    -1          0          0      )
                  (     1          1          0      )
                  (     0          0          1      )

 cart.    s(16) = ( -1.0000000  0.0000000  0.0000000 )
                  (  0.0000000  1.0000000  0.0000000 )
                  (  0.0000000  0.0000000  1.0000000 )


      isym = 17     inv.  60 deg rotation - cryst. axis [0,0,1]  

 cryst.   s(17) = (    -1         -1          0      )
                  (     1          0          0      )
                  (     0          0         -1      )

 cart.    s(17) = ( -0.5000000  0.8660254  0.0000000 )
                  ( -0.8660254 -0.5000000  0.0000000 )
                  (  0.0000000  0.0000000 -1.0000000 )


      isym = 18     inv.  60 deg rotation - cryst. axis [0,0,-1] 

 cryst.   s(18) = (     0          1          0      )
                  (    -1         -1          0      )
                  (     0          0         -1      )

 cart.    s(18) = ( -0.5000000 -0.8660254  0.0000000 )
                  (  0.8660254 -0.5000000  0.0000000 )
                  (  0.0000000  0.0000000 -1.0000000 )


      isym = 19     inv. 120 deg rotation - cryst. axis [0,0,1]  

 cryst.   s(19) = (     0         -1          0      )
                  (     1          1          0      )
                  (     0          0         -1      )

 cart.    s(19) = (  0.5000000  0.8660254  0.0000000 )
                  ( -0.8660254  0.5000000  0.0000000 )
                  (  0.0000000  0.0000000 -1.0000000 )


      isym = 20     inv. 120 deg rotation - cryst. axis [0,0,-1] 

 cryst.   s(20) = (     1          1          0      )
                  (    -1          0          0      )
                  (     0          0         -1      )

 cart.    s(20) = (  0.5000000 -0.8660254  0.0000000 )
                  (  0.8660254  0.5000000  0.0000000 )
                  (  0.0000000  0.0000000 -1.0000000 )


      isym = 21     inv. 180 deg rotation - cryst. axis [1,-1,0] 

 cryst.   s(21) = (     0          1          0      )
                  (     1          0          0      )
                  (     0          0          1      )

 cart.    s(21) = ( -0.5000000  0.8660254  0.0000000 )
                  (  0.8660254  0.5000000  0.0000000 )
                  (  0.0000000  0.0000000  1.0000000 )


      isym = 22     inv. 180 deg rotation - cryst. axis [2,1,0]  

 cryst.   s(22) = (    -1         -1          0      )
                  (     0          1          0      )
                  (     0          0          1      )

 cart.    s(22) = ( -0.5000000 -0.8660254  0.0000000 )
                  ( -0.8660254  0.5000000  0.0000000 )
                  (  0.0000000  0.0000000  1.0000000 )


      isym = 23     inv. 180 deg rotation - cryst. axis [0,1,0]  

 cryst.   s(23) = (     1          1          0      )
                  (     0         -1          0      )
                  (     0          0          1      )

 cart.    s(23) = (  0.5000000  0.8660254  0.0000000 )
                  (  0.8660254 -0.5000000  0.0000000 )
                  (  0.0000000  0.0000000  1.0000000 )


      isym = 24     inv. 180 deg rotation - cryst. axis [1,1,0]  

 cryst.   s(24) = (     0         -1          0      )
                  (    -1          0          0      )
                  (     0          0          1      )

 cart.    s(24) = (  0.5000000 -0.8660254  0.0000000 )
                  ( -0.8660254 -0.5000000  0.0000000 )
                  (  0.0000000  0.0000000  1.0000000 )


     point group D_6h(6/mmm)
     there are 12 classes
     the character table:

       E     2C6   2C3   C2    3C2'  3C2'' i     2S3   2S6   s_h   3s_d  3s_v 
A_1g   1.00  1.00  1.00  1.00  1.00  1.00  1.00  1.00  1.00  1.00  1.00  1.00
A_2g   1.00  1.00  1.00  1.00 -1.00 -1.00  1.00  1.00  1.00  1.00 -1.00 -1.00
B_1g   1.00 -1.00  1.00 -1.00  1.00 -1.00  1.00 -1.00  1.00 -1.00  1.00 -1.00
B_2g   1.00 -1.00  1.00 -1.00 -1.00  1.00  1.00 -1.00  1.00 -1.00 -1.00  1.00
E_1g   2.00  1.00 -1.00 -2.00  0.00  0.00  2.00  1.00 -1.00 -2.00  0.00  0.00
E_2g   2.00 -1.00 -1.00  2.00  0.00  0.00  2.00 -1.00 -1.00  2.00  0.00  0.00
A_1u   1.00  1.00  1.00  1.00  1.00  1.00 -1.00 -1.00 -1.00 -1.00 -1.00 -1.00
A_2u   1.00  1.00  1.00  1.00 -1.00 -1.00 -1.00 -1.00 -1.00 -1.00  1.00  1.00
B_1u   1.00 -1.00  1.00 -1.00  1.00 -1.00 -1.00  1.00 -1.00  1.00 -1.00  1.00
B_2u   1.00 -1.00  1.00 -1.00 -1.00  1.00 -1.00  1.00 -1.00  1.00  1.00 -1.00
E_1u   2.00  1.00 -1.00 -2.00  0.00  0.00 -2.00 -1.00  1.00  2.00  0.00  0.00
E_2u   2.00 -1.00 -1.00  2.00  0.00  0.00 -2.00  1.00  1.00 -2.00  0.00  0.00

     the symmetry operations in each class and the name of the first element:

     E        1
          identity                                               
     2C6      5    6
           60 deg rotation - cryst. axis [0,0,1]                 
     2C3      7    8
          120 deg rotation - cryst. axis [0,0,1]                 
     C2       2
          180 deg rotation - cart. axis [0,0,1]                  
     3C2'     4   12   11
          180 deg rotation - cart. axis [1,0,0]                  
     3C2''    3    9   10
          180 deg rotation - cart. axis [0,1,0]                  
     i       13
          inversion                                              
     2S3     17   18
          inv.  60 deg rotation - cryst. axis [0,0,1]            
     2S6     19   20
          inv. 120 deg rotation - cryst. axis [0,0,1]            
     s_h     14
          inv. 180 deg rotation - cart. axis [0,0,1]             
     3s_d    16   24   23
          inv. 180 deg rotation - cart. axis [1,0,0]             
     3s_v    15   21   22
          inv. 180 deg rotation - cart. axis [0,1,0]             

   Cartesian axes

     site n.     atom                  positions (alat units)
         1           Sb  tau(   1) = (   0.5000000   0.2886751   0.0000000  )
         2           Sb  tau(   2) = (   0.0000000   0.5773503   0.0000000  )

   Crystallographic axes

     site n.     atom                  positions (cryst. coord.)
         1           Sb  tau(   1) = (  0.6666667  0.3333333  0.0000000  )
         2           Sb  tau(   2) = (  0.3333333  0.6666667  0.0000000  )

     number of k points=   217  Methfessel-Paxton smearing, width (Ry)=  0.1000
                       cart. coord. in units 2pi/alat
        k(    1) = (   0.0000000   0.0000000   0.0000000), wk =   0.0008681
        k(    2) = (   0.0000000   0.0240563   0.0000000), wk =   0.0052083
        k(    3) = (   0.0000000   0.0481125   0.0000000), wk =   0.0052083
        k(    4) = (   0.0000000   0.0721688   0.0000000), wk =   0.0052083
        k(    5) = (   0.0000000   0.0962250   0.0000000), wk =   0.0052083
        k(    6) = (   0.0000000   0.1202813   0.0000000), wk =   0.0052083
        k(    7) = (   0.0000000   0.1443376   0.0000000), wk =   0.0052083
        k(    8) = (   0.0000000   0.1683938   0.0000000), wk =   0.0052083
        k(    9) = (   0.0000000   0.1924501   0.0000000), wk =   0.0052083
        k(   10) = (   0.0000000   0.2165064   0.0000000), wk =   0.0052083
        k(   11) = (   0.0000000   0.2405626   0.0000000), wk =   0.0052083
        k(   12) = (   0.0000000   0.2646189   0.0000000), wk =   0.0052083
        k(   13) = (   0.0000000   0.2886751   0.0000000), wk =   0.0052083
        k(   14) = (   0.0000000   0.3127314   0.0000000), wk =   0.0052083
        k(   15) = (   0.0000000   0.3367877   0.0000000), wk =   0.0052083
        k(   16) = (   0.0000000   0.3608439   0.0000000), wk =   0.0052083
        k(   17) = (   0.0000000   0.3849002   0.0000000), wk =   0.0052083
        k(   18) = (   0.0000000   0.4089564   0.0000000), wk =   0.0052083
        k(   19) = (   0.0000000   0.4330127   0.0000000), wk =   0.0052083
        k(   20) = (   0.0000000   0.4570690   0.0000000), wk =   0.0052083
        k(   21) = (   0.0000000   0.4811252   0.0000000), wk =   0.0052083
        k(   22) = (   0.0000000   0.5051815   0.0000000), wk =   0.0052083
        k(   23) = (   0.0000000   0.5292377   0.0000000), wk =   0.0052083
        k(   24) = (   0.0000000   0.5532940   0.0000000), wk =   0.0052083
        k(   25) = (   0.0000000  -0.5773503   0.0000000), wk =   0.0026042
        k(   26) = (   0.0208333   0.0360844   0.0000000), wk =   0.0052083
        k(   27) = (   0.0208333   0.0601407   0.0000000), wk =   0.0104167
        k(   28) = (   0.0208333   0.0841969   0.0000000), wk =   0.0104167
        k(   29) = (   0.0208333   0.1082532   0.0000000), wk =   0.0104167
        k(   30) = (   0.0208333   0.1323094   0.0000000), wk =   0.0104167
        k(   31) = (   0.0208333   0.1563657   0.0000000), wk =   0.0104167
        k(   32) = (   0.0208333   0.1804220   0.0000000), wk =   0.0104167
        k(   33) = (   0.0208333   0.2044782   0.0000000), wk =   0.0104167
        k(   34) = (   0.0208333   0.2285345   0.0000000), wk =   0.0104167
        k(   35) = (   0.0208333   0.2525907   0.0000000), wk =   0.0104167
        k(   36) = (   0.0208333   0.2766470   0.0000000), wk =   0.0104167
        k(   37) = (   0.0208333   0.3007033   0.0000000), wk =   0.0104167
        k(   38) = (   0.0208333   0.3247595   0.0000000), wk =   0.0104167
        k(   39) = (   0.0208333   0.3488158   0.0000000), wk =   0.0104167
        k(   40) = (   0.0208333   0.3728720   0.0000000), wk =   0.0104167
        k(   41) = (   0.0208333   0.3969283   0.0000000), wk =   0.0104167
        k(   42) = (   0.0208333   0.4209846   0.0000000), wk =   0.0104167
        k(   43) = (   0.0208333   0.4450408   0.0000000), wk =   0.0104167
        k(   44) = (   0.0208333   0.4690971   0.0000000), wk =   0.0104167
        k(   45) = (   0.0208333   0.4931534   0.0000000), wk =   0.0104167
        k(   46) = (   0.0208333   0.5172096   0.0000000), wk =   0.0104167
        k(   47) = (   0.0208333   0.5412659   0.0000000), wk =   0.0104167
        k(   48) = (   0.0208333   0.5653221   0.0000000), wk =   0.0104167
        k(   49) = (   0.0416667   0.0721688   0.0000000), wk =   0.0052083
        k(   50) = (   0.0416667   0.0962250   0.0000000), wk =   0.0104167
        k(   51) = (   0.0416667   0.1202813   0.0000000), wk =   0.0104167
        k(   52) = (   0.0416667   0.1443376   0.0000000), wk =   0.0104167
        k(   53) = (   0.0416667   0.1683938   0.0000000), wk =   0.0104167
        k(   54) = (   0.0416667   0.1924501   0.0000000), wk =   0.0104167
        k(   55) = (   0.0416667   0.2165064   0.0000000), wk =   0.0104167
        k(   56) = (   0.0416667   0.2405626   0.0000000), wk =   0.0104167
        k(   57) = (   0.0416667   0.2646189   0.0000000), wk =   0.0104167
        k(   58) = (   0.0416667   0.2886751   0.0000000), wk =   0.0104167
        k(   59) = (   0.0416667   0.3127314   0.0000000), wk =   0.0104167
        k(   60) = (   0.0416667   0.3367877   0.0000000), wk =   0.0104167
        k(   61) = (   0.0416667   0.3608439   0.0000000), wk =   0.0104167
        k(   62) = (   0.0416667   0.3849002   0.0000000), wk =   0.0104167
        k(   63) = (   0.0416667   0.4089564   0.0000000), wk =   0.0104167
        k(   64) = (   0.0416667   0.4330127   0.0000000), wk =   0.0104167
        k(   65) = (   0.0416667   0.4570690   0.0000000), wk =   0.0104167
        k(   66) = (   0.0416667   0.4811252   0.0000000), wk =   0.0104167
        k(   67) = (   0.0416667   0.5051815   0.0000000), wk =   0.0104167
        k(   68) = (   0.0416667   0.5292377   0.0000000), wk =   0.0104167
        k(   69) = (   0.0416667   0.5532940   0.0000000), wk =   0.0104167
        k(   70) = (   0.0416667   0.5773503   0.0000000), wk =   0.0052083
        k(   71) = (   0.0625000   0.1082532   0.0000000), wk =   0.0052083
        k(   72) = (   0.0625000   0.1323094   0.0000000), wk =   0.0104167
        k(   73) = (   0.0625000   0.1563657   0.0000000), wk =   0.0104167
        k(   74) = (   0.0625000   0.1804220   0.0000000), wk =   0.0104167
        k(   75) = (   0.0625000   0.2044782   0.0000000), wk =   0.0104167
        k(   76) = (   0.0625000   0.2285345   0.0000000), wk =   0.0104167
        k(   77) = (   0.0625000   0.2525907   0.0000000), wk =   0.0104167
        k(   78) = (   0.0625000   0.2766470   0.0000000), wk =   0.0104167
        k(   79) = (   0.0625000   0.3007033   0.0000000), wk =   0.0104167
        k(   80) = (   0.0625000   0.3247595   0.0000000), wk =   0.0104167
        k(   81) = (   0.0625000   0.3488158   0.0000000), wk =   0.0104167
        k(   82) = (   0.0625000   0.3728720   0.0000000), wk =   0.0104167
        k(   83) = (   0.0625000   0.3969283   0.0000000), wk =   0.0104167
        k(   84) = (   0.0625000   0.4209846   0.0000000), wk =   0.0104167
        k(   85) = (   0.0625000   0.4450408   0.0000000), wk =   0.0104167
        k(   86) = (   0.0625000   0.4690971   0.0000000), wk =   0.0104167
        k(   87) = (   0.0625000   0.4931534   0.0000000), wk =   0.0104167
        k(   88) = (   0.0625000   0.5172096   0.0000000), wk =   0.0104167
        k(   89) = (   0.0625000   0.5412659   0.0000000), wk =   0.0104167
        k(   90) = (   0.0625000   0.5653221   0.0000000), wk =   0.0104167
        k(   91) = (   0.0833333   0.1443376   0.0000000), wk =   0.0052083
        k(   92) = (   0.0833333   0.1683938   0.0000000), wk =   0.0104167
        k(   93) = (   0.0833333   0.1924501   0.0000000), wk =   0.0104167
        k(   94) = (   0.0833333   0.2165064   0.0000000), wk =   0.0104167
        k(   95) = (   0.0833333   0.2405626   0.0000000), wk =   0.0104167
        k(   96) = (   0.0833333   0.2646189   0.0000000), wk =   0.0104167
        k(   97) = (   0.0833333   0.2886751   0.0000000), wk =   0.0104167
        k(   98) = (   0.0833333   0.3127314   0.0000000), wk =   0.0104167
        k(   99) = (   0.0833333   0.3367877   0.0000000), wk =   0.0104167
        k(  100) = (   0.0833333   0.3608439   0.0000000), wk =   0.0104167
        k(  101) = (   0.0833333   0.3849002   0.0000000), wk =   0.0104167
        k(  102) = (   0.0833333   0.4089564   0.0000000), wk =   0.0104167
        k(  103) = (   0.0833333   0.4330127   0.0000000), wk =   0.0104167
        k(  104) = (   0.0833333   0.4570690   0.0000000), wk =   0.0104167
        k(  105) = (   0.0833333   0.4811252   0.0000000), wk =   0.0104167
        k(  106) = (   0.0833333   0.5051815   0.0000000), wk =   0.0104167
        k(  107) = (   0.0833333   0.5292377   0.0000000), wk =   0.0104167
        k(  108) = (   0.0833333   0.5532940   0.0000000), wk =   0.0104167
        k(  109) = (   0.0833333   0.5773503   0.0000000), wk =   0.0052083
        k(  110) = (   0.1041667   0.1804220   0.0000000), wk =   0.0052083
        k(  111) = (   0.1041667   0.2044782   0.0000000), wk =   0.0104167
        k(  112) = (   0.1041667   0.2285345   0.0000000), wk =   0.0104167
        k(  113) = (   0.1041667   0.2525907   0.0000000), wk =   0.0104167
        k(  114) = (   0.1041667   0.2766470   0.0000000), wk =   0.0104167
        k(  115) = (   0.1041667   0.3007033   0.0000000), wk =   0.0104167
        k(  116) = (   0.1041667   0.3247595   0.0000000), wk =   0.0104167
        k(  117) = (   0.1041667   0.3488158   0.0000000), wk =   0.0104167
        k(  118) = (   0.1041667   0.3728720   0.0000000), wk =   0.0104167
        k(  119) = (   0.1041667   0.3969283   0.0000000), wk =   0.0104167
        k(  120) = (   0.1041667   0.4209846   0.0000000), wk =   0.0104167
        k(  121) = (   0.1041667   0.4450408   0.0000000), wk =   0.0104167
        k(  122) = (   0.1041667   0.4690971   0.0000000), wk =   0.0104167
        k(  123) = (   0.1041667   0.4931534   0.0000000), wk =   0.0104167
        k(  124) = (   0.1041667   0.5172096   0.0000000), wk =   0.0104167
        k(  125) = (   0.1041667   0.5412659   0.0000000), wk =   0.0104167
        k(  126) = (   0.1041667   0.5653221   0.0000000), wk =   0.0104167
        k(  127) = (   0.1250000   0.2165064   0.0000000), wk =   0.0052083
        k(  128) = (   0.1250000   0.2405626   0.0000000), wk =   0.0104167
        k(  129) = (   0.1250000   0.2646189   0.0000000), wk =   0.0104167
        k(  130) = (   0.1250000   0.2886751   0.0000000), wk =   0.0104167
        k(  131) = (   0.1250000   0.3127314   0.0000000), wk =   0.0104167
        k(  132) = (   0.1250000   0.3367877   0.0000000), wk =   0.0104167
        k(  133) = (   0.1250000   0.3608439   0.0000000), wk =   0.0104167
        k(  134) = (   0.1250000   0.3849002   0.0000000), wk =   0.0104167
        k(  135) = (   0.1250000   0.4089564   0.0000000), wk =   0.0104167
        k(  136) = (   0.1250000   0.4330127   0.0000000), wk =   0.0104167
        k(  137) = (   0.1250000   0.4570690   0.0000000), wk =   0.0104167
        k(  138) = (   0.1250000   0.4811252   0.0000000), wk =   0.0104167
        k(  139) = (   0.1250000   0.5051815   0.0000000), wk =   0.0104167
        k(  140) = (   0.1250000   0.5292377   0.0000000), wk =   0.0104167
        k(  141) = (   0.1250000   0.5532940   0.0000000), wk =   0.0104167
        k(  142) = (   0.1250000   0.5773503   0.0000000), wk =   0.0052083
        k(  143) = (   0.1458333   0.2525907   0.0000000), wk =   0.0052083
        k(  144) = (   0.1458333   0.2766470   0.0000000), wk =   0.0104167
        k(  145) = (   0.1458333   0.3007033   0.0000000), wk =   0.0104167
        k(  146) = (   0.1458333   0.3247595   0.0000000), wk =   0.0104167
        k(  147) = (   0.1458333   0.3488158   0.0000000), wk =   0.0104167
        k(  148) = (   0.1458333   0.3728720   0.0000000), wk =   0.0104167
        k(  149) = (   0.1458333   0.3969283   0.0000000), wk =   0.0104167
        k(  150) = (   0.1458333   0.4209846   0.0000000), wk =   0.0104167
        k(  151) = (   0.1458333   0.4450408   0.0000000), wk =   0.0104167
        k(  152) = (   0.1458333   0.4690971   0.0000000), wk =   0.0104167
        k(  153) = (   0.1458333   0.4931534   0.0000000), wk =   0.0104167
        k(  154) = (   0.1458333   0.5172096   0.0000000), wk =   0.0104167
        k(  155) = (   0.1458333   0.5412659   0.0000000), wk =   0.0104167
        k(  156) = (   0.1458333   0.5653221   0.0000000), wk =   0.0104167
        k(  157) = (   0.1666667   0.2886751   0.0000000), wk =   0.0052083
        k(  158) = (   0.1666667   0.3127314   0.0000000), wk =   0.0104167
        k(  159) = (   0.1666667   0.3367877   0.0000000), wk =   0.0104167
        k(  160) = (   0.1666667   0.3608439   0.0000000), wk =   0.0104167
        k(  161) = (   0.1666667   0.3849002   0.0000000), wk =   0.0104167
        k(  162) = (   0.1666667   0.4089564   0.0000000), wk =   0.0104167
        k(  163) = (   0.1666667   0.4330127   0.0000000), wk =   0.0104167
        k(  164) = (   0.1666667   0.4570690   0.0000000), wk =   0.0104167
        k(  165) = (   0.1666667   0.4811252   0.0000000), wk =   0.0104167
        k(  166) = (   0.1666667   0.5051815   0.0000000), wk =   0.0104167
        k(  167) = (   0.1666667   0.5292377   0.0000000), wk =   0.0104167
        k(  168) = (   0.1666667   0.5532940   0.0000000), wk =   0.0104167
        k(  169) = (   0.1666667   0.5773503   0.0000000), wk =   0.0052083
        k(  170) = (   0.1875000   0.3247595   0.0000000), wk =   0.0052083
        k(  171) = (   0.1875000   0.3488158   0.0000000), wk =   0.0104167
        k(  172) = (   0.1875000   0.3728720   0.0000000), wk =   0.0104167
        k(  173) = (   0.1875000   0.3969283   0.0000000), wk =   0.0104167
        k(  174) = (   0.1875000   0.4209846   0.0000000), wk =   0.0104167
        k(  175) = (   0.1875000   0.4450408   0.0000000), wk =   0.0104167
        k(  176) = (   0.1875000   0.4690971   0.0000000), wk =   0.0104167
        k(  177) = (   0.1875000   0.4931534   0.0000000), wk =   0.0104167
        k(  178) = (   0.1875000   0.5172096   0.0000000), wk =   0.0104167
        k(  179) = (   0.1875000   0.5412659   0.0000000), wk =   0.0104167
        k(  180) = (   0.1875000   0.5653221   0.0000000), wk =   0.0104167
        k(  181) = (   0.2083333   0.3608439   0.0000000), wk =   0.0052083
        k(  182) = (   0.2083333   0.3849002   0.0000000), wk =   0.0104167
        k(  183) = (   0.2083333   0.4089564   0.0000000), wk =   0.0104167
        k(  184) = (   0.2083333   0.4330127   0.0000000), wk =   0.0104167
        k(  185) = (   0.2083333   0.4570690   0.0000000), wk =   0.0104167
        k(  186) = (   0.2083333   0.4811252   0.0000000), wk =   0.0104167
        k(  187) = (   0.2083333   0.5051815   0.0000000), wk =   0.0104167
        k(  188) = (   0.2083333   0.5292377   0.0000000), wk =   0.0104167
        k(  189) = (   0.2083333   0.5532940   0.0000000), wk =   0.0104167
        k(  190) = (   0.2083333   0.5773503   0.0000000), wk =   0.0052083
        k(  191) = (   0.2291667   0.3969283   0.0000000), wk =   0.0052083
        k(  192) = (   0.2291667   0.4209846   0.0000000), wk =   0.0104167
        k(  193) = (   0.2291667   0.4450408   0.0000000), wk =   0.0104167
        k(  194) = (   0.2291667   0.4690971   0.0000000), wk =   0.0104167
        k(  195) = (   0.2291667   0.4931534   0.0000000), wk =   0.0104167
        k(  196) = (   0.2291667   0.5172096   0.0000000), wk =   0.0104167
        k(  197) = (   0.2291667   0.5412659   0.0000000), wk =   0.0104167
        k(  198) = (   0.2291667   0.5653221   0.0000000), wk =   0.0104167
        k(  199) = (   0.2500000   0.4330127   0.0000000), wk =   0.0052083
        k(  200) = (   0.2500000   0.4570690   0.0000000), wk =   0.0104167
        k(  201) = (   0.2500000   0.4811252   0.0000000), wk =   0.0104167
        k(  202) = (   0.2500000   0.5051815   0.0000000), wk =   0.0104167
        k(  203) = (   0.2500000   0.5292377   0.0000000), wk =   0.0104167
        k(  204) = (   0.2500000   0.5532940   0.0000000), wk =   0.0104167
        k(  205) = (   0.2500000   0.5773503   0.0000000), wk =   0.0052083
        k(  206) = (   0.2708333   0.4690971   0.0000000), wk =   0.0052083
        k(  207) = (   0.2708333   0.4931534   0.0000000), wk =   0.0104167
        k(  208) = (   0.2708333   0.5172096   0.0000000), wk =   0.0104167
        k(  209) = (   0.2708333   0.5412659   0.0000000), wk =   0.0104167
        k(  210) = (   0.2708333   0.5653221   0.0000000), wk =   0.0104167
        k(  211) = (   0.2916667   0.5051815   0.0000000), wk =   0.0052083
        k(  212) = (   0.2916667   0.5292377   0.0000000), wk =   0.0104167
        k(  213) = (   0.2916667   0.5532940   0.0000000), wk =   0.0104167
        k(  214) = (   0.2916667   0.5773503   0.0000000), wk =   0.0052083
        k(  215) = (   0.3125000   0.5412659   0.0000000), wk =   0.0052083
        k(  216) = (   0.3125000   0.5653221   0.0000000), wk =   0.0104167
        k(  217) = (   0.3333333   0.5773503   0.0000000), wk =   0.0017361

                       cryst. coord.
        k(    1) = (   0.0000000   0.0000000   0.0000000), wk =   0.0008681
        k(    2) = (   0.0000000   0.0208333   0.0000000), wk =   0.0052083
        k(    3) = (   0.0000000   0.0416667   0.0000000), wk =   0.0052083
        k(    4) = (   0.0000000   0.0625000   0.0000000), wk =   0.0052083
        k(    5) = (   0.0000000   0.0833333   0.0000000), wk =   0.0052083
        k(    6) = (   0.0000000   0.1041667   0.0000000), wk =   0.0052083
        k(    7) = (   0.0000000   0.1250000   0.0000000), wk =   0.0052083
        k(    8) = (   0.0000000   0.1458333   0.0000000), wk =   0.0052083
        k(    9) = (   0.0000000   0.1666667   0.0000000), wk =   0.0052083
        k(   10) = (   0.0000000   0.1875000   0.0000000), wk =   0.0052083
        k(   11) = (   0.0000000   0.2083333   0.0000000), wk =   0.0052083
        k(   12) = (   0.0000000   0.2291667   0.0000000), wk =   0.0052083
        k(   13) = (   0.0000000   0.2500000   0.0000000), wk =   0.0052083
        k(   14) = (   0.0000000   0.2708333   0.0000000), wk =   0.0052083
        k(   15) = (   0.0000000   0.2916667   0.0000000), wk =   0.0052083
        k(   16) = (   0.0000000   0.3125000   0.0000000), wk =   0.0052083
        k(   17) = (   0.0000000   0.3333333   0.0000000), wk =   0.0052083
        k(   18) = (   0.0000000   0.3541667   0.0000000), wk =   0.0052083
        k(   19) = (   0.0000000   0.3750000   0.0000000), wk =   0.0052083
        k(   20) = (   0.0000000   0.3958333   0.0000000), wk =   0.0052083
        k(   21) = (   0.0000000   0.4166667   0.0000000), wk =   0.0052083
        k(   22) = (   0.0000000   0.4375000   0.0000000), wk =   0.0052083
        k(   23) = (   0.0000000   0.4583333   0.0000000), wk =   0.0052083
        k(   24) = (   0.0000000   0.4791667   0.0000000), wk =   0.0052083
        k(   25) = (   0.0000000  -0.5000000   0.0000000), wk =   0.0026042
        k(   26) = (   0.0208333   0.0208333   0.0000000), wk =   0.0052083
        k(   27) = (   0.0208333   0.0416667   0.0000000), wk =   0.0104167
        k(   28) = (   0.0208333   0.0625000   0.0000000), wk =   0.0104167
        k(   29) = (   0.0208333   0.0833333   0.0000000), wk =   0.0104167
        k(   30) = (   0.0208333   0.1041667   0.0000000), wk =   0.0104167
        k(   31) = (   0.0208333   0.1250000   0.0000000), wk =   0.0104167
        k(   32) = (   0.0208333   0.1458333   0.0000000), wk =   0.0104167
        k(   33) = (   0.0208333   0.1666667   0.0000000), wk =   0.0104167
        k(   34) = (   0.0208333   0.1875000   0.0000000), wk =   0.0104167
        k(   35) = (   0.0208333   0.2083333   0.0000000), wk =   0.0104167
        k(   36) = (   0.0208333   0.2291667   0.0000000), wk =   0.0104167
        k(   37) = (   0.0208333   0.2500000   0.0000000), wk =   0.0104167
        k(   38) = (   0.0208333   0.2708333   0.0000000), wk =   0.0104167
        k(   39) = (   0.0208333   0.2916667   0.0000000), wk =   0.0104167
        k(   40) = (   0.0208333   0.3125000   0.0000000), wk =   0.0104167
        k(   41) = (   0.0208333   0.3333333   0.0000000), wk =   0.0104167
        k(   42) = (   0.0208333   0.3541667   0.0000000), wk =   0.0104167
        k(   43) = (   0.0208333   0.3750000   0.0000000), wk =   0.0104167
        k(   44) = (   0.0208333   0.3958333   0.0000000), wk =   0.0104167
        k(   45) = (   0.0208333   0.4166667   0.0000000), wk =   0.0104167
        k(   46) = (   0.0208333   0.4375000   0.0000000), wk =   0.0104167
        k(   47) = (   0.0208333   0.4583333   0.0000000), wk =   0.0104167
        k(   48) = (   0.0208333   0.4791667   0.0000000), wk =   0.0104167
        k(   49) = (   0.0416667   0.0416667   0.0000000), wk =   0.0052083
        k(   50) = (   0.0416667   0.0625000   0.0000000), wk =   0.0104167
        k(   51) = (   0.0416667   0.0833333   0.0000000), wk =   0.0104167
        k(   52) = (   0.0416667   0.1041667   0.0000000), wk =   0.0104167
        k(   53) = (   0.0416667   0.1250000   0.0000000), wk =   0.0104167
        k(   54) = (   0.0416667   0.1458333   0.0000000), wk =   0.0104167
        k(   55) = (   0.0416667   0.1666667   0.0000000), wk =   0.0104167
        k(   56) = (   0.0416667   0.1875000   0.0000000), wk =   0.0104167
        k(   57) = (   0.0416667   0.2083333   0.0000000), wk =   0.0104167
        k(   58) = (   0.0416667   0.2291667   0.0000000), wk =   0.0104167
        k(   59) = (   0.0416667   0.2500000   0.0000000), wk =   0.0104167
        k(   60) = (   0.0416667   0.2708333   0.0000000), wk =   0.0104167
        k(   61) = (   0.0416667   0.2916667   0.0000000), wk =   0.0104167
        k(   62) = (   0.0416667   0.3125000   0.0000000), wk =   0.0104167
        k(   63) = (   0.0416667   0.3333333   0.0000000), wk =   0.0104167
        k(   64) = (   0.0416667   0.3541667   0.0000000), wk =   0.0104167
        k(   65) = (   0.0416667   0.3750000   0.0000000), wk =   0.0104167
        k(   66) = (   0.0416667   0.3958333   0.0000000), wk =   0.0104167
        k(   67) = (   0.0416667   0.4166667   0.0000000), wk =   0.0104167
        k(   68) = (   0.0416667   0.4375000   0.0000000), wk =   0.0104167
        k(   69) = (   0.0416667   0.4583333   0.0000000), wk =   0.0104167
        k(   70) = (   0.0416667   0.4791667   0.0000000), wk =   0.0052083
        k(   71) = (   0.0625000   0.0625000   0.0000000), wk =   0.0052083
        k(   72) = (   0.0625000   0.0833333   0.0000000), wk =   0.0104167
        k(   73) = (   0.0625000   0.1041667   0.0000000), wk =   0.0104167
        k(   74) = (   0.0625000   0.1250000   0.0000000), wk =   0.0104167
        k(   75) = (   0.0625000   0.1458333   0.0000000), wk =   0.0104167
        k(   76) = (   0.0625000   0.1666667   0.0000000), wk =   0.0104167
        k(   77) = (   0.0625000   0.1875000   0.0000000), wk =   0.0104167
        k(   78) = (   0.0625000   0.2083333   0.0000000), wk =   0.0104167
        k(   79) = (   0.0625000   0.2291667   0.0000000), wk =   0.0104167
        k(   80) = (   0.0625000   0.2500000   0.0000000), wk =   0.0104167
        k(   81) = (   0.0625000   0.2708333   0.0000000), wk =   0.0104167
        k(   82) = (   0.0625000   0.2916667   0.0000000), wk =   0.0104167
        k(   83) = (   0.0625000   0.3125000   0.0000000), wk =   0.0104167
        k(   84) = (   0.0625000   0.3333333   0.0000000), wk =   0.0104167
        k(   85) = (   0.0625000   0.3541667   0.0000000), wk =   0.0104167
        k(   86) = (   0.0625000   0.3750000   0.0000000), wk =   0.0104167
        k(   87) = (   0.0625000   0.3958333   0.0000000), wk =   0.0104167
        k(   88) = (   0.0625000   0.4166667   0.0000000), wk =   0.0104167
        k(   89) = (   0.0625000   0.4375000   0.0000000), wk =   0.0104167
        k(   90) = (   0.0625000   0.4583333   0.0000000), wk =   0.0104167
        k(   91) = (   0.0833333   0.0833333   0.0000000), wk =   0.0052083
        k(   92) = (   0.0833333   0.1041667   0.0000000), wk =   0.0104167
        k(   93) = (   0.0833333   0.1250000   0.0000000), wk =   0.0104167
        k(   94) = (   0.0833333   0.1458333   0.0000000), wk =   0.0104167
        k(   95) = (   0.0833333   0.1666667   0.0000000), wk =   0.0104167
        k(   96) = (   0.0833333   0.1875000   0.0000000), wk =   0.0104167
        k(   97) = (   0.0833333   0.2083333   0.0000000), wk =   0.0104167
        k(   98) = (   0.0833333   0.2291667   0.0000000), wk =   0.0104167
        k(   99) = (   0.0833333   0.2500000   0.0000000), wk =   0.0104167
        k(  100) = (   0.0833333   0.2708333   0.0000000), wk =   0.0104167
        k(  101) = (   0.0833333   0.2916667   0.0000000), wk =   0.0104167
        k(  102) = (   0.0833333   0.3125000   0.0000000), wk =   0.0104167
        k(  103) = (   0.0833333   0.3333333   0.0000000), wk =   0.0104167
        k(  104) = (   0.0833333   0.3541667   0.0000000), wk =   0.0104167
        k(  105) = (   0.0833333   0.3750000   0.0000000), wk =   0.0104167
        k(  106) = (   0.0833333   0.3958333   0.0000000), wk =   0.0104167
        k(  107) = (   0.0833333   0.4166667   0.0000000), wk =   0.0104167
        k(  108) = (   0.0833333   0.4375000   0.0000000), wk =   0.0104167
        k(  109) = (   0.0833333   0.4583333   0.0000000), wk =   0.0052083
        k(  110) = (   0.1041667   0.1041667   0.0000000), wk =   0.0052083
        k(  111) = (   0.1041667   0.1250000   0.0000000), wk =   0.0104167
        k(  112) = (   0.1041667   0.1458333   0.0000000), wk =   0.0104167
        k(  113) = (   0.1041667   0.1666667   0.0000000), wk =   0.0104167
        k(  114) = (   0.1041667   0.1875000   0.0000000), wk =   0.0104167
        k(  115) = (   0.1041667   0.2083333   0.0000000), wk =   0.0104167
        k(  116) = (   0.1041667   0.2291667   0.0000000), wk =   0.0104167
        k(  117) = (   0.1041667   0.2500000   0.0000000), wk =   0.0104167
        k(  118) = (   0.1041667   0.2708333   0.0000000), wk =   0.0104167
        k(  119) = (   0.1041667   0.2916667   0.0000000), wk =   0.0104167
        k(  120) = (   0.1041667   0.3125000   0.0000000), wk =   0.0104167
        k(  121) = (   0.1041667   0.3333333   0.0000000), wk =   0.0104167
        k(  122) = (   0.1041667   0.3541667   0.0000000), wk =   0.0104167
        k(  123) = (   0.1041667   0.3750000   0.0000000), wk =   0.0104167
        k(  124) = (   0.1041667   0.3958333   0.0000000), wk =   0.0104167
        k(  125) = (   0.1041667   0.4166667   0.0000000), wk =   0.0104167
        k(  126) = (   0.1041667   0.4375000   0.0000000), wk =   0.0104167
        k(  127) = (   0.1250000   0.1250000   0.0000000), wk =   0.0052083
        k(  128) = (   0.1250000   0.1458333   0.0000000), wk =   0.0104167
        k(  129) = (   0.1250000   0.1666667   0.0000000), wk =   0.0104167
        k(  130) = (   0.1250000   0.1875000   0.0000000), wk =   0.0104167
        k(  131) = (   0.1250000   0.2083333   0.0000000), wk =   0.0104167
        k(  132) = (   0.1250000   0.2291667   0.0000000), wk =   0.0104167
        k(  133) = (   0.1250000   0.2500000   0.0000000), wk =   0.0104167
        k(  134) = (   0.1250000   0.2708333   0.0000000), wk =   0.0104167
        k(  135) = (   0.1250000   0.2916667   0.0000000), wk =   0.0104167
        k(  136) = (   0.1250000   0.3125000   0.0000000), wk =   0.0104167
        k(  137) = (   0.1250000   0.3333333   0.0000000), wk =   0.0104167
        k(  138) = (   0.1250000   0.3541667   0.0000000), wk =   0.0104167
        k(  139) = (   0.1250000   0.3750000   0.0000000), wk =   0.0104167
        k(  140) = (   0.1250000   0.3958333   0.0000000), wk =   0.0104167
        k(  141) = (   0.1250000   0.4166667   0.0000000), wk =   0.0104167
        k(  142) = (   0.1250000   0.4375000   0.0000000), wk =   0.0052083
        k(  143) = (   0.1458333   0.1458333   0.0000000), wk =   0.0052083
        k(  144) = (   0.1458333   0.1666667   0.0000000), wk =   0.0104167
        k(  145) = (   0.1458333   0.1875000   0.0000000), wk =   0.0104167
        k(  146) = (   0.1458333   0.2083333   0.0000000), wk =   0.0104167
        k(  147) = (   0.1458333   0.2291667   0.0000000), wk =   0.0104167
        k(  148) = (   0.1458333   0.2500000   0.0000000), wk =   0.0104167
        k(  149) = (   0.1458333   0.2708333   0.0000000), wk =   0.0104167
        k(  150) = (   0.1458333   0.2916667   0.0000000), wk =   0.0104167
        k(  151) = (   0.1458333   0.3125000   0.0000000), wk =   0.0104167
        k(  152) = (   0.1458333   0.3333333   0.0000000), wk =   0.0104167
        k(  153) = (   0.1458333   0.3541667   0.0000000), wk =   0.0104167
        k(  154) = (   0.1458333   0.3750000   0.0000000), wk =   0.0104167
        k(  155) = (   0.1458333   0.3958333   0.0000000), wk =   0.0104167
        k(  156) = (   0.1458333   0.4166667   0.0000000), wk =   0.0104167
        k(  157) = (   0.1666667   0.1666667   0.0000000), wk =   0.0052083
        k(  158) = (   0.1666667   0.1875000   0.0000000), wk =   0.0104167
        k(  159) = (   0.1666667   0.2083333   0.0000000), wk =   0.0104167
        k(  160) = (   0.1666667   0.2291667   0.0000000), wk =   0.0104167
        k(  161) = (   0.1666667   0.2500000   0.0000000), wk =   0.0104167
        k(  162) = (   0.1666667   0.2708333   0.0000000), wk =   0.0104167
        k(  163) = (   0.1666667   0.2916667   0.0000000), wk =   0.0104167
        k(  164) = (   0.1666667   0.3125000   0.0000000), wk =   0.0104167
        k(  165) = (   0.1666667   0.3333333   0.0000000), wk =   0.0104167
        k(  166) = (   0.1666667   0.3541667   0.0000000), wk =   0.0104167
        k(  167) = (   0.1666667   0.3750000   0.0000000), wk =   0.0104167
        k(  168) = (   0.1666667   0.3958333   0.0000000), wk =   0.0104167
        k(  169) = (   0.1666667   0.4166667   0.0000000), wk =   0.0052083
        k(  170) = (   0.1875000   0.1875000   0.0000000), wk =   0.0052083
        k(  171) = (   0.1875000   0.2083333   0.0000000), wk =   0.0104167
        k(  172) = (   0.1875000   0.2291667   0.0000000), wk =   0.0104167
        k(  173) = (   0.1875000   0.2500000   0.0000000), wk =   0.0104167
        k(  174) = (   0.1875000   0.2708333   0.0000000), wk =   0.0104167
        k(  175) = (   0.1875000   0.2916667   0.0000000), wk =   0.0104167
        k(  176) = (   0.1875000   0.3125000   0.0000000), wk =   0.0104167
        k(  177) = (   0.1875000   0.3333333   0.0000000), wk =   0.0104167
        k(  178) = (   0.1875000   0.3541667   0.0000000), wk =   0.0104167
        k(  179) = (   0.1875000   0.3750000   0.0000000), wk =   0.0104167
        k(  180) = (   0.1875000   0.3958333   0.0000000), wk =   0.0104167
        k(  181) = (   0.2083333   0.2083333   0.0000000), wk =   0.0052083
        k(  182) = (   0.2083333   0.2291667   0.0000000), wk =   0.0104167
        k(  183) = (   0.2083333   0.2500000   0.0000000), wk =   0.0104167
        k(  184) = (   0.2083333   0.2708333   0.0000000), wk =   0.0104167
        k(  185) = (   0.2083333   0.2916667   0.0000000), wk =   0.0104167
        k(  186) = (   0.2083333   0.3125000   0.0000000), wk =   0.0104167
        k(  187) = (   0.2083333   0.3333333   0.0000000), wk =   0.0104167
        k(  188) = (   0.2083333   0.3541667   0.0000000), wk =   0.0104167
        k(  189) = (   0.2083333   0.3750000   0.0000000), wk =   0.0104167
        k(  190) = (   0.2083333   0.3958333   0.0000000), wk =   0.0052083
        k(  191) = (   0.2291667   0.2291667   0.0000000), wk =   0.0052083
        k(  192) = (   0.2291667   0.2500000   0.0000000), wk =   0.0104167
        k(  193) = (   0.2291667   0.2708333   0.0000000), wk =   0.0104167
        k(  194) = (   0.2291667   0.2916667   0.0000000), wk =   0.0104167
        k(  195) = (   0.2291667   0.3125000   0.0000000), wk =   0.0104167
        k(  196) = (   0.2291667   0.3333333   0.0000000), wk =   0.0104167
        k(  197) = (   0.2291667   0.3541667   0.0000000), wk =   0.0104167
        k(  198) = (   0.2291667   0.3750000   0.0000000), wk =   0.0104167
        k(  199) = (   0.2500000   0.2500000   0.0000000), wk =   0.0052083
        k(  200) = (   0.2500000   0.2708333   0.0000000), wk =   0.0104167
        k(  201) = (   0.2500000   0.2916667   0.0000000), wk =   0.0104167
        k(  202) = (   0.2500000   0.3125000   0.0000000), wk =   0.0104167
        k(  203) = (   0.2500000   0.3333333   0.0000000), wk =   0.0104167
        k(  204) = (   0.2500000   0.3541667   0.0000000), wk =   0.0104167
        k(  205) = (   0.2500000   0.3750000   0.0000000), wk =   0.0052083
        k(  206) = (   0.2708333   0.2708333   0.0000000), wk =   0.0052083
        k(  207) = (   0.2708333   0.2916667   0.0000000), wk =   0.0104167
        k(  208) = (   0.2708333   0.3125000   0.0000000), wk =   0.0104167
        k(  209) = (   0.2708333   0.3333333   0.0000000), wk =   0.0104167
        k(  210) = (   0.2708333   0.3541667   0.0000000), wk =   0.0104167
        k(  211) = (   0.2916667   0.2916667   0.0000000), wk =   0.0052083
        k(  212) = (   0.2916667   0.3125000   0.0000000), wk =   0.0104167
        k(  213) = (   0.2916667   0.3333333   0.0000000), wk =   0.0104167
        k(  214) = (   0.2916667   0.3541667   0.0000000), wk =   0.0052083
        k(  215) = (   0.3125000   0.3125000   0.0000000), wk =   0.0052083
        k(  216) = (   0.3125000   0.3333333   0.0000000), wk =   0.0104167
        k(  217) = (   0.3333333   0.3333333   0.0000000), wk =   0.0017361

     Dense  grid:  1189559 G-vectors     FFT dimensions: (  72,  72, 648)

     Dynamical RAM for                 wfc:      21.56 MB

     Dynamical RAM for     wfc (w. buffer):    4700.20 MB

     Dynamical RAM for           str. fact:       9.08 MB

     Dynamical RAM for           local pot:       0.00 MB

     Dynamical RAM for          nlocal pot:      40.85 MB

     Dynamical RAM for                qrad:       2.57 MB

     Dynamical RAM for          rho,v,vnew:      65.67 MB

     Dynamical RAM for               rhoin:      21.89 MB

     Dynamical RAM for            rho*nmix:     145.21 MB

     Dynamical RAM for           G-vectors:      38.57 MB

     Dynamical RAM for          h,s,v(r/c):       0.26 MB

     Dynamical RAM for          <psi|beta>:       0.01 MB

     Dynamical RAM for                 psi:      86.24 MB

     Dynamical RAM for                hpsi:      86.24 MB

     Dynamical RAM for                spsi:      86.24 MB

     Dynamical RAM for      wfcinit/wfcrot:      43.13 MB

     Dynamical RAM for           addusdens:    1706.22 MB

     Dynamical RAM for          addusforce:    1728.92 MB

     Dynamical RAM for         addusstress:    1824.21 MB

     Estimated static dynamical RAM per process >       4.99 GB

     Estimated max dynamical RAM per process >       6.77 GB

     Estimated total dynamical RAM >      13.54 GB

     Initial potential from superposition of free atoms

     starting charge    9.99877, renormalised to   10.00000

     negative rho (up, down):  7.902E-05 0.000E+00
     Starting wfcs are    8 randomized atomic wfcs +   11 random wfcs
     Checking if some PAW data can be deallocated... 

     total cpu time spent up to now is      464.3 secs

     Self-consistent Calculation

     iteration #  1     ecut=   110.00 Ry     beta= 0.30
     Davidson diagonalization with overlap
     ethr =  1.00E-02,  avg # of iterations =  9.6

     Threshold (ethr) on eigenvalues was too large:
     Diagonalizing with lowered threshold

     Davidson diagonalization with overlap
     ethr =  8.29E-05,  avg # of iterations =  8.3

     negative rho (up, down):  7.328E-05 0.000E+00

     total cpu time spent up to now is     8592.4 secs

     total energy              =    -695.23798851 Ry
     Harris-Foulkes estimate   =    -695.23900613 Ry
     estimated scf accuracy    <       0.00870815 Ry

     iteration #  2     ecut=   110.00 Ry     beta= 0.30
     Davidson diagonalization with overlap
     ethr =  8.71E-05,  avg # of iterations =  1.0

     negative rho (up, down):  6.946E-05 0.000E+00

     total cpu time spent up to now is    12941.4 secs

     total energy              =    -695.23728070 Ry
     Harris-Foulkes estimate   =    -695.23806912 Ry
     estimated scf accuracy    <       0.00377406 Ry

     iteration #  3     ecut=   110.00 Ry     beta= 0.30
     Davidson diagonalization with overlap
     ethr =  3.77E-05,  avg # of iterations =  2.3

     negative rho (up, down):  6.990E-05 0.000E+00

     total cpu time spent up to now is    15760.9 secs

     total energy              =    -695.23744035 Ry
     Harris-Foulkes estimate   =    -695.23746842 Ry
     estimated scf accuracy    <       0.00007443 Ry

     iteration #  4     ecut=   110.00 Ry     beta= 0.30
     Davidson diagonalization with overlap
     c_bands:  1 eigenvalues not converged
     c_bands:  1 eigenvalues not converged
     c_bands:  1 eigenvalues not converged
     c_bands:  1 eigenvalues not converged
     c_bands:  1 eigenvalues not converged
     c_bands:  1 eigenvalues not converged
     c_bands:  2 eigenvalues not converged
     c_bands:  1 eigenvalues not converged
     c_bands:  1 eigenvalues not converged
     c_bands:  1 eigenvalues not converged
     c_bands:  1 eigenvalues not converged
     c_bands:  1 eigenvalues not converged
     c_bands:  1 eigenvalues not converged
     c_bands:  1 eigenvalues not converged
     c_bands:  1 eigenvalues not converged
     c_bands:  1 eigenvalues not converged
     c_bands:  1 eigenvalues not converged
     c_bands:  1 eigenvalues not converged
     c_bands:  1 eigenvalues not converged
     c_bands:  2 eigenvalues not converged
     ethr =  7.44E-07,  avg # of iterations =  9.8

     negative rho (up, down):  6.996E-05 0.000E+00

     total cpu time spent up to now is    19316.5 secs

     total energy              =    -695.23745969 Ry
     Harris-Foulkes estimate   =    -695.23745988 Ry
     estimated scf accuracy    <       0.00000194 Ry

     iteration #  5     ecut=   110.00 Ry     beta= 0.30
     Davidson diagonalization with overlap
     ethr =  1.94E-08,  avg # of iterations =  2.2

     negative rho (up, down):  7.025E-05 0.000E+00

     total cpu time spent up to now is    22216.1 secs

     total energy              =    -695.23745995 Ry
     Harris-Foulkes estimate   =    -695.23745992 Ry
     estimated scf accuracy    <       0.00000052 Ry

     iteration #  6     ecut=   110.00 Ry     beta= 0.30
     Davidson diagonalization with overlap
     ethr =  5.21E-09,  avg # of iterations =  1.1

     negative rho (up, down):  7.031E-05 0.000E+00

     total cpu time spent up to now is    25085.1 secs

     total energy              =    -695.23746000 Ry
     Harris-Foulkes estimate   =    -695.23745999 Ry
     estimated scf accuracy    <       0.00000002 Ry

     iteration #  7     ecut=   110.00 Ry     beta= 0.30
     Davidson diagonalization with overlap
     ethr =  1.77E-10,  avg # of iterations =  3.5

     negative rho (up, down):  7.034E-05 0.000E+00

     total cpu time spent up to now is    28134.7 secs

     End of self-consistent calculation

          k = 0.0000 0.0000 0.0000 (148503 PWs)   bands (ev):

   -14.9200  -9.6436  -6.5604  -6.5604  -6.2868  -2.6285  -2.6285  -1.9172
    -0.5896   0.3466   0.5192   0.6091   0.6672   0.8929   0.9638   1.3219
     1.3738   1.6715   1.8846

     occupation numbers 
     1.0000   1.0000   1.0156   1.0156   1.0245  -0.0335  -0.0335  -0.0211
    -0.0007  -0.0000  -0.0000  -0.0000  -0.0000  -0.0000  -0.0000  -0.0000
    -0.0000  -0.0000  -0.0000

          k = 0.0000 0.0241 0.0000 (148461 PWs)   bands (ev):

   -14.9173  -9.6600  -6.5648  -6.5451  -6.2841  -2.6298  -2.6180  -1.9256
    -0.5854   0.3498   0.5226   0.6125   0.6706   0.8962   0.9675   1.3251
     1.3787   1.6824   1.8878

     occupation numbers 
     1.0000   1.0000   1.0155   1.0161   1.0246  -0.0335  -0.0338  -0.0214
    -0.0007  -0.0000  -0.0000  -0.0000  -0.0000  -0.0000  -0.0000  -0.0000
    -0.0000  -0.0000  -0.0000

          k = 0.0000 0.0481 0.0000 (148409 PWs)   bands (ev):

   -14.9090  -9.7078  -6.5781  -6.5006  -6.2758  -2.6334  -2.5867  -1.9505
    -0.5728   0.3592   0.5328   0.6225   0.6809   0.9061   0.9783   1.3350
     1.3928   1.7154   1.8974

     occupation numbers 
     1.0000   1.0000   1.0151   1.0174   1.0249  -0.0334  -0.0345  -0.0222
    -0.0006  -0.0000  -0.0000  -0.0000  -0.0000  -0.0000  -0.0000  -0.0000
    -0.0000  -0.0000  -0.0000

          k = 0.0000 0.0722 0.0000 (148467 PWs)   bands (ev):

   -14.8951  -9.7841  -6.5997  -6.4305  -6.2621  -2.6379  -2.5351  -1.9914
    -0.5522   0.3750   0.5498   0.6393   0.6981   0.9227   0.9962   1.3513
     1.4151   1.7696   1.9133

     occupation numbers 
     1.0000   1.0000   1.0145   1.0197   1.0253  -0.0332  -0.0352  -0.0236
    -0.0006  -0.0000  -0.0000  -0.0000  -0.0000  -0.0000  -0.0000  -0.0000
    -0.0000  -0.0000  -0.0000

          k = 0.0000 0.0962 0.0000 (148513 PWs)   bands (ev):

   -14.8758  -9.8846  -6.6287  -6.3397  -6.2429  -2.6411  -2.4642  -2.0472
    -0.5239   0.3969   0.5735   0.6627   0.7221   0.9459   1.0210   1.3741
     1.4443   1.8430   1.9355

     occupation numbers 
     1.0000   1.0000   1.0137   1.0227   1.0260  -0.0331  -0.0354  -0.0255
    -0.0005  -0.0000  -0.0000  -0.0000  -0.0000  -0.0000  -0.0000  -0.0000
    -0.0000  -0.0000  -0.0000

          k = 0.0000 0.1203 0.0000 (148515 PWs)   bands (ev):

   -14.8511 -10.0045  -6.6641  -6.2341  -6.2183  -2.6405  -2.3750  -2.1167
    -0.4884   0.4251   0.6040   0.6928   0.7529   0.9756   1.0525   1.4034
     1.4797   1.9292   1.9635

     occupation numbers 
     1.0000   1.0000   1.0127   1.0263   1.0268  -0.0331  -0.0345  -0.0278
    -0.0005  -0.0000  -0.0000  -0.0000  -0.0000  -0.0000  -0.0000  -0.0000
    -0.0000  -0.0000  -0.0000

          k = 0.0000 0.1443 0.0000 (148503 PWs)   bands (ev):

   -14.8209 -10.1396  -6.7048  -6.1884  -6.1194  -2.6329  -2.2690  -2.1984
    -0.4460   0.4593   0.6412   0.7296   0.7904   1.0119   1.0908   1.4390
     1.5210   1.9975   2.0166

     occupation numbers 
     1.0000   1.0000   1.0117   1.0278   1.0300  -0.0334  -0.0323  -0.0304
    -0.0004  -0.0000  -0.0000  -0.0000  -0.0000  -0.0000  -0.0000  -0.0000
    -0.0000  -0.0000  -0.0000

          k = 0.0000 0.1684 0.0000 (148512 PWs)   bands (ev):

   -14.7854 -10.2860  -6.7495  -6.1533  -6.0010  -2.6150  -2.2909  -2.1475
    -0.3973   0.4995   0.6852   0.7730   0.8346   1.0547   1.1357   1.4809
     1.5681   2.0369   2.0949

     occupation numbers 
     1.0000   1.0000   1.0106   1.0289   1.0332  -0.0339  -0.0329  -0.0288
    -0.0003  -0.0000  -0.0000  -0.0000  -0.0000  -0.0000  -0.0000  -0.0000
    -0.0000  -0.0000  -0.0000

          k = 0.0000 0.1925 0.0000 (148534 PWs)   bands (ev):

   -14.7448 -10.4404  -6.7972  -6.1130  -5.8839  -2.5834  -2.3925  -2.0120
    -0.3423   0.5454   0.7360   0.8230   0.8856   1.1040   1.1871   1.5288
     1.6213   2.0811   2.1650

     occupation numbers 
     1.0000   1.0000   1.0095   1.0302   1.0351  -0.0346  -0.0348  -0.0243
    -0.0003  -0.0000  -0.0000  -0.0000  -0.0000  -0.0000  -0.0000  -0.0000
    -0.0000  -0.0000  -0.0000

          k = 0.0000 0.2165 0.0000 (148532 PWs)   bands (ev):

   -14.6990 -10.6001  -6.8466  -6.0677  -5.7723  -2.5352  -2.5017  -1.8639
    -0.2814   0.5970   0.7935   0.8797   0.9433   1.1596   1.2452   1.5827
     1.6804   2.1289   2.2330

     occupation numbers 
     1.0000   1.0000   1.0085   1.0315   1.0353  -0.0352  -0.0354  -0.0194
    -0.0002  -0.0000  -0.0000  -0.0000  -0.0000  -0.0000  -0.0000  -0.0000
    -0.0000  -0.0000  -0.0000

          k = 0.0000 0.2406 0.0000 (148586 PWs)   bands (ev):

   -14.6482 -10.7631  -6.8967  -6.0176  -5.6697  -2.6171  -2.4677  -1.7046
    -0.2147   0.6538   0.8578   0.9429   1.0077   1.2215   1.3098   1.6420
     1.7458   2.1784   2.3031

     occupation numbers 
     1.0000   1.0000   1.0076   1.0328   1.0333  -0.0338  -0.0354  -0.0145
    -0.0002  -0.0000  -0.0000  -0.0000  -0.0000  -0.0000  -0.0000  -0.0000
    -0.0000  -0.0000  -0.0000

          k = 0.0000 0.2646 0.0000 (148542 PWs)   bands (ev):

   -14.5927 -10.9274  -6.9466  -5.9628  -5.5788  -2.7372  -2.3791  -1.5356
    -0.1423   0.7156   0.9289   1.0127   1.0788   1.2895   1.3810   1.7063
     1.8175   2.2258   2.3775

     occupation numbers 
     1.0000   1.0000   1.0067   1.0340   1.0295  -0.0288  -0.0346  -0.0102
    -0.0001  -0.0000  -0.0000  -0.0000  -0.0000  -0.0000  -0.0000  -0.0000
    -0.0000  -0.0000  -0.0000

          k = 0.0000 0.2887 0.0000 (148574 PWs)   bands (ev):

   -14.5327 -11.0916  -6.9955  -5.9037  -5.5009  -2.8607  -2.2688  -1.3584
    -0.0643   0.7819   1.0067   1.0890   1.1566   1.3635   1.4589   1.7746
     1.8954   2.2646   2.4565

     occupation numbers 
     1.0000   1.0000   1.0059   1.0349   1.0242  -0.0190  -0.0323  -0.0067
    -0.0001  -0.0000  -0.0000  -0.0000  -0.0000  -0.0000  -0.0000  -0.0000
    -0.0000  -0.0000  -0.0000

          k = 0.0000 0.3127 0.0000 (148642 PWs)   bands (ev):

   -14.4685 -11.2543  -7.0426  -5.8406  -5.4366  -2.9862  -2.1369  -1.1746
     0.0192   0.8518   1.0912   1.1717   1.2411   1.4430   1.5433   1.8453
     1.9798   2.2884   2.4604

     occupation numbers 
     1.0000   1.0000   1.0052   1.0354   1.0183  -0.0032  -0.0285  -0.0042
    -0.0001  -0.0000  -0.0000  -0.0000  -0.0000  -0.0000  -0.0000  -0.0000
    -0.0000  -0.0000  -0.0000

          k = 0.0000 0.3368 0.0000 (148636 PWs)   bands (ev):

   -14.4005 -11.4143  -7.0874  -5.7738  -5.3852  -3.1125  -1.9849  -0.9859
     0.1081   0.9245   1.1825   1.2608   1.3323   1.5275   1.6342   1.9153
     2.0704   2.2998   2.4030

     occupation numbers 
     1.0000   1.0000   1.0047   1.0353   1.0125   0.0197  -0.0234  -0.0024
    -0.0000  -0.0000  -0.0000  -0.0000  -0.0000  -0.0000  -0.0000  -0.0000
    -0.0000  -0.0000  -0.0000

          k = 0.0000 0.3608 0.0000 (148678 PWs)   bands (ev):

   -14.3292 -11.5703  -7.1293  -5.7039  -5.3457  -3.2382  -1.8152  -0.7941
     0.2021   0.9984   1.2806   1.3560   1.4301   1.6161   1.7317   1.9799
     2.1672   2.3140   2.3505

     occupation numbers 
     1.0000   1.0000   1.0042   1.0342   1.0073   0.0505  -0.0178  -0.0013
    -0.0000  -0.0000  -0.0000  -0.0000  -0.0000  -0.0000  -0.0000  -0.0000
    -0.0000  -0.0000  -0.0000

          k = 0.0000 0.3849 0.0000 (148610 PWs)   bands (ev):

   -14.2555 -11.7211  -7.1678  -5.6316  -5.3162  -3.3621  -1.6309  -0.6017
     0.3010   1.0716   1.3854   1.4572   1.5347   1.7073   1.8357   2.0352
     2.2701   2.3031   2.3480

     occupation numbers 
     1.0000   1.0000   1.0037   1.0320   1.0030   0.0889  -0.0125  -0.0007
    -0.0000  -0.0000  -0.0000  -0.0000  -0.0000  -0.0000  -0.0000  -0.0000
    -0.0000  -0.0000  -0.0000

          k = 0.0000 0.4090 0.0000 (148658 PWs)   bands (ev):

   -14.1802 -11.8652  -7.2027  -5.5579  -5.2952  -3.4826  -1.4358  -0.4114
     0.4045   1.1415   1.4970   1.5639   1.6458   1.7985   1.9460   2.0843
     2.2610   2.3784   2.4093

     occupation numbers 
     1.0000   1.0000   1.0034   1.0283   0.9996   0.1344  -0.0081  -0.0004
    -0.0000  -0.0000  -0.0000  -0.0000  -0.0000  -0.0000  -0.0000  -0.0000
    -0.0000  -0.0000  -0.0000

          k = 0.0000 0.4330 0.0000 (148694 PWs)   bands (ev):

   -14.1047 -12.0009  -7.2334  -5.4840  -5.2806  -3.5979  -1.2347  -0.2268
     0.5123   1.2048   1.6153   1.6757   1.7636   1.8870   2.0623   2.1401
     2.2243   2.3996   2.4936

     occupation numbers 
     1.0000   1.0000   1.0031   1.0228   0.9972   0.1850  -0.0049  -0.0002
    -0.0000  -0.0000  -0.0000  -0.0000  -0.0000  -0.0000  -0.0000  -0.0000
    -0.0000  -0.0000  -0.0000

          k = 0.0000 0.4571 0.0000 (148658 PWs)   bands (ev):

   -14.0309 -12.1261  -7.2598  -5.4119  -5.2711  -3.7058  -1.0335  -0.0524
     0.6238   1.2585   1.7403   1.7912   1.8877   1.9723   2.1787   2.1931
     2.2026   2.2142   2.5932

     occupation numbers 
     1.0000   1.0000   1.0029   1.0157   0.9956   0.2384  -0.0028  -0.0001
    -0.0000  -0.0000  -0.0000  -0.0000  -0.0000  -0.0000  -0.0000  -0.0000
    -0.0000  -0.0000  -0.0000

          k = 0.0000 0.4811 0.0000 (148668 PWs)   bands (ev):

   -13.9615 -12.2380  -7.2818  -5.3439  -5.2651  -3.8035  -0.8399   0.1063
     0.7387   1.3003   1.8721   1.9084   1.9929   2.0201   2.0598   2.1674
     2.3086   2.3122   2.6996

     occupation numbers 
     1.0000   1.0000   1.0027   1.0070   0.9945   0.2910  -0.0015  -0.0000
    -0.0000  -0.0000  -0.0000  -0.0000  -0.0000  -0.0000  -0.0000  -0.0000
    -0.0000  -0.0000  -0.0000

          k = 0.0000 0.5052 0.0000 (148706 PWs)   bands (ev):

   -13.8998 -12.3327  -7.2990  -5.2834  -5.2616  -3.8873  -0.6641   0.2423
     0.8570   1.3299   1.7984   2.0106   2.0231   2.1474   2.1549   2.1577
     2.4172   2.4404   2.7850

     occupation numbers 
     1.0000   1.0000   1.0026   0.9977   0.9939   0.3388  -0.0009  -0.0000
    -0.0000  -0.0000  -0.0000  -0.0000  -0.0000  -0.0000  -0.0000  -0.0000
    -0.0000  -0.0000  -0.0000

          k = 0.0000 0.5292 0.0000 (148752 PWs)   bands (ev):

   -13.8504 -12.4059  -7.3113  -5.2596  -5.2347  -3.9528  -0.5197   0.3479
     0.9794   1.3489   1.6115   2.1286   2.1331   2.1556   2.2701   2.2958
     2.5300   2.5556   2.7628

     occupation numbers 
     1.0000   1.0000   1.0025   0.9936   0.9890   0.3776  -0.0005  -0.0000
    -0.0000  -0.0000  -0.0000  -0.0000  -0.0000  -0.0000  -0.0000  -0.0000
    -0.0000  -0.0000  -0.0000

          k = 0.0000 0.5533 0.0000 (148764 PWs)   bands (ev):

   -13.8180 -12.4526  -7.3188  -5.2587  -5.2028  -3.9949  -0.4230   0.4152
     1.1058   1.3591   1.4413   2.1245   2.2117   2.3068   2.3951   2.4356
     2.5967   2.6158   2.6415

     occupation numbers 
     1.0000   1.0000   1.0024   0.9934   0.9826   0.4031  -0.0004  -0.0000
    -0.0000  -0.0000  -0.0000  -0.0000  -0.0000  -0.0000  -0.0000  -0.0000
    -0.0000  -0.0000  -0.0000

          k = 0.0000-0.5774 0.0000 (148752 PWs)   bands (ev):

   -13.8067 -12.4687  -7.3213  -5.2585  -5.1916  -4.0095  -0.3887   0.4384
     1.1984   1.3329   1.3623   2.1217   2.2460   2.4574   2.4673   2.5064
     2.5315   2.5525   2.6140

     occupation numbers 
     1.0000   1.0000   1.0024   0.9934   0.9803   0.4120  -0.0003  -0.0000
    -0.0000  -0.0000  -0.0000  -0.0000  -0.0000  -0.0000  -0.0000  -0.0000
    -0.0000  -0.0000  -0.0000

          k = 0.0208 0.0361 0.0000 (148434 PWs)   bands (ev):

   -14.9117  -9.6921  -6.5738  -6.5151  -6.2786  -2.6325  -2.5969  -1.9422
    -0.5770   0.3561   0.5294   0.6192   0.6775   0.9028   0.9747   1.3317
     1.3882   1.7043   1.8942

     occupation numbers 
     1.0000   1.0000   1.0152   1.0170   1.0248  -0.0334  -0.0343  -0.0220
    -0.0006  -0.0000  -0.0000  -0.0000  -0.0000  -0.0000  -0.0000  -0.0000
    -0.0000  -0.0000  -0.0000

          k = 0.0208 0.0601 0.0000 (148469 PWs)   bands (ev):

   -14.9007  -9.7541  -6.5915  -6.4576  -6.2676  -2.6369  -2.5550  -1.9751
    -0.5604   0.3687   0.5430   0.6326   0.6912   0.9161   0.9890   1.3448
     1.4063   1.7480   1.9069

     occupation numbers 
     1.0000   1.0000   1.0147   1.0188   1.0251  -0.0333  -0.0350  -0.0231
    -0.0006  -0.0000  -0.0000  -0.0000  -0.0000  -0.0000  -0.0000  -0.0000
    -0.0000  -0.0000  -0.0000

          k = 0.0208 0.0842 0.0000 (148518 PWs)   bands (ev):

   -14.8841  -9.8424  -6.6172  -6.3768  -6.2511  -2.6415  -2.4931  -2.0234
    -0.5359   0.3875   0.5633   0.6527   0.7118   0.9359   1.0104   1.3644
     1.4320   1.8121   1.9259

     occupation numbers 
     1.0000   1.0000   1.0140   1.0214   1.0257  -0.0331  -0.0355  -0.0247
    -0.0006  -0.0000  -0.0000  -0.0000  -0.0000  -0.0000  -0.0000  -0.0000
    -0.0000  -0.0000  -0.0000

          k = 0.0208 0.1083 0.0000 (148512 PWs)   bands (ev):

   -14.8621  -9.9524  -6.6499  -6.2781  -6.2292  -2.6437  -2.4123  -2.0861
    -0.5040   0.4126   0.5904   0.6794   0.7392   0.9624   1.0385   1.3904
     1.4642   1.8923   1.9510

     occupation numbers 
     1.0000   1.0000   1.0131   1.0248   1.0264  -0.0330  -0.0350  -0.0268
    -0.0005  -0.0000  -0.0000  -0.0000  -0.0000  -0.0000  -0.0000  -0.0000
    -0.0000  -0.0000  -0.0000

          k = 0.0208 0.1323 0.0000 (148489 PWs)   bands (ev):

   -14.8346 -10.0796  -6.6885  -6.2020  -6.1674  -2.6408  -2.3137  -2.1617
    -0.4652   0.4438   0.6243   0.7128   0.7733   0.9954   1.0734   1.4228
     1.5024   1.9795   1.9820

     occupation numbers 
     1.0000   1.0000   1.0121   1.0273   1.0285  -0.0331  -0.0334  -0.0293
    -0.0004  -0.0000  -0.0000  -0.0000  -0.0000  -0.0000  -0.0000  -0.0000
    -0.0000  -0.0000  -0.0000

          k = 0.0208 0.1564 0.0000 (148500 PWs)   bands (ev):

   -14.8018 -10.2200  -6.7318  -6.1695  -6.0502  -2.6294  -2.2487  -2.1989
    -0.4197   0.4809   0.6649   0.7529   0.8142   1.0349   1.1150   1.4615
     1.5465   2.0186   2.0615

     occupation numbers 
     1.0000   1.0000   1.0110   1.0284   1.0319  -0.0335  -0.0318  -0.0304
    -0.0004  -0.0000  -0.0000  -0.0000  -0.0000  -0.0000  -0.0000  -0.0000
    -0.0000  -0.0000  -0.0000

          k = 0.0208 0.1804 0.0000 (148517 PWs)   bands (ev):

   -14.7637 -10.3700  -6.7786  -6.1317  -5.9317  -2.6063  -2.3457  -2.0691
    -0.3678   0.5240   0.7123   0.7997   0.8618   1.0810   1.1631   1.5064
     1.5966   2.0602   2.1340

     occupation numbers 
     1.0000   1.0000   1.0099   1.0296   1.0345  -0.0341  -0.0340  -0.0263
    -0.0003  -0.0000  -0.0000  -0.0000  -0.0000  -0.0000  -0.0000  -0.0000
    -0.0000  -0.0000  -0.0000

          k = 0.0208 0.2045 0.0000 (148551 PWs)   bands (ev):

   -14.7205 -10.5267  -6.8277  -6.0890  -5.8164  -2.5682  -2.4510  -1.9260
    -0.3100   0.5727   0.7664   0.8530   0.9162   1.1334   1.2179   1.5572
     1.6527   2.1058   2.2019

     occupation numbers 
     1.0000   1.0000   1.0089   1.0309   1.0355  -0.0348  -0.0354  -0.0214
    -0.0002  -0.0000  -0.0000  -0.0000  -0.0000  -0.0000  -0.0000  -0.0000
    -0.0000  -0.0000  -0.0000

          k = 0.0208 0.2285 0.0000 (148549 PWs)   bands (ev):

   -14.6722 -10.6877  -6.8781  -6.0412  -5.7083  -2.5632  -2.5123  -1.7709
    -0.2462   0.6268   0.8274   0.9130   0.9772   1.1921   1.2792   1.6137
     1.7149   2.1534   2.2704

     occupation numbers 
     1.0000   1.0000   1.0079   1.0322   1.0343  -0.0349  -0.0354  -0.0164
    -0.0002  -0.0000  -0.0000  -0.0000  -0.0000  -0.0000  -0.0000  -0.0000
    -0.0000  -0.0000  -0.0000

          k = 0.0208 0.2526 0.0000 (148573 PWs)   bands (ev):

   -14.6190 -10.8509  -6.9287  -5.9888  -5.6105  -2.6808  -2.4364  -1.6053
    -0.1767   0.6860   0.8950   0.9795   1.0449   1.2570   1.3471   1.6753
     1.7834   2.1991   2.3425

     occupation numbers 
     1.0000   1.0000   1.0070   1.0334   1.0311  -0.0316  -0.0353  -0.0118
    -0.0001  -0.0000  -0.0000  -0.0000  -0.0000  -0.0000  -0.0000  -0.0000
    -0.0000  -0.0000  -0.0000

          k = 0.0208 0.2766 0.0000 (148605 PWs)   bands (ev):

   -14.5613 -11.0149  -6.9786  -5.9318  -5.5251  -2.8025  -2.3390  -1.4307
    -0.1015   0.7499   0.9694   1.0525   1.1194   1.3279   1.4217   1.7412
     1.8582   2.2349   2.4188

     occupation numbers 
     1.0000   1.0000   1.0062   1.0345   1.0261  -0.0243  -0.0339  -0.0080
    -0.0001  -0.0000  -0.0000  -0.0000  -0.0000  -0.0000  -0.0000  -0.0000
    -0.0000  -0.0000  -0.0000

          k = 0.0208 0.3007 0.0000 (148648 PWs)   bands (ev):

   -14.4991 -11.1780  -7.0272  -5.8707  -5.4531  -2.9268  -2.2199  -1.2486
    -0.0208   0.8177   1.0506   1.1319   1.2005   1.4045   1.5028   1.8098
     1.9393   2.2500   2.4785

     occupation numbers 
     1.0000   1.0000   1.0055   1.0352   1.0200  -0.0115  -0.0310  -0.0051
    -0.0001  -0.0000  -0.0000  -0.0000  -0.0000  -0.0000  -0.0000  -0.0000
    -0.0000  -0.0000  -0.0000

          k = 0.0208 0.3248 0.0000 (148678 PWs)   bands (ev):

   -14.4329 -11.3391  -7.0736  -5.8056  -5.3945  -3.0526  -2.0799  -1.0606
     0.0654   0.8887   1.1386   1.2177   1.2884   1.4862   1.5905   1.8781
     2.0268   2.2457   2.4689

     occupation numbers 
     1.0000   1.0000   1.0048   1.0354   1.0136   0.0079  -0.0266  -0.0030
    -0.0001  -0.0000  -0.0000  -0.0000  -0.0000  -0.0000  -0.0000  -0.0000
    -0.0000  -0.0000  -0.0000

          k = 0.0208 0.3488 0.0000 (148668 PWs)   bands (ev):

   -14.3632 -11.4969  -7.1174  -5.7372  -5.3484  -3.1786  -1.9209  -0.8686
     0.1568   0.9614   1.2333   1.3098   1.3829   1.5722   1.6847   1.9407
     2.1205   2.2410   2.4517

     occupation numbers 
     1.0000   1.0000   1.0043   1.0349   1.0077   0.0349  -0.0212  -0.0017
    -0.0000  -0.0000  -0.0000  -0.0000  -0.0000  -0.0000  -0.0000  -0.0000
    -0.0000  -0.0000  -0.0000

          k = 0.0208 0.3729 0.0000 (148671 PWs)   bands (ev):

   -14.2906 -11.6501  -7.1580  -5.6660  -5.3134  -3.3034  -1.7456  -0.6746
     0.2533   1.0340   1.3347   1.4078   1.4841   1.6611   1.7854   1.9911
     2.2204   2.2534   2.4306

     occupation numbers 
     1.0000   1.0000   1.0038   1.0332   1.0025   0.0697  -0.0157  -0.0009
    -0.0000  -0.0000  -0.0000  -0.0000  -0.0000  -0.0000  -0.0000  -0.0000
    -0.0000  -0.0000  -0.0000

          k = 0.0208 0.3969 0.0000 (148695 PWs)   bands (ev):

   -14.2159 -11.7975  -7.1950  -5.5929  -5.2877  -3.4256  -1.5576  -0.4811
     0.3545   1.1041   1.4429   1.5115   1.5920   1.7501   1.8926   2.0307
     2.2789   2.3261   2.4265

     occupation numbers 
     1.0000   1.0000   1.0035   1.0302   0.9984   0.1119  -0.0107  -0.0005
    -0.0000  -0.0000  -0.0000  -0.0000  -0.0000  -0.0000  -0.0000  -0.0000
    -0.0000  -0.0000  -0.0000

          k = 0.0208 0.4210 0.0000 (148703 PWs)   bands (ev):

   -14.1403 -11.9375  -7.2281  -5.5189  -5.2696  -3.5436  -1.3612  -0.2914
     0.4601   1.1685   1.5578   1.6202   1.7064   1.8354   2.0059   2.0735
     2.2891   2.4353   2.4674

     occupation numbers 
     1.0000   1.0000   1.0031   1.0256   0.9953   0.1603  -0.0068  -0.0002
    -0.0000  -0.0000  -0.0000  -0.0000  -0.0000  -0.0000  -0.0000  -0.0000
    -0.0000  -0.0000  -0.0000

          k = 0.0208 0.4450 0.0000 (148706 PWs)   bands (ev):

   -14.0653 -12.0681  -7.2570  -5.4456  -5.2573  -3.6554  -1.1616  -0.1093
     0.5697   1.2238   1.6795   1.7327   1.8274   1.9150   2.1251   2.1314
     2.2842   2.2986   2.5494

     occupation numbers 
     1.0000   1.0000   1.0029   1.0192   0.9932   0.2128  -0.0040  -0.0001
    -0.0000  -0.0000  -0.0000  -0.0000  -0.0000  -0.0000  -0.0000  -0.0000
    -0.0000  -0.0000  -0.0000

          k = 0.0208 0.4691 0.0000 (148705 PWs)   bands (ev):

   -13.9933 -12.1869  -7.2814  -5.3751  -5.2493  -3.7585  -0.9655   0.0600
     0.6829   1.2674   1.8079   1.8466   1.9546   1.9941   2.0944   2.1904
     2.2508   2.2977   2.6495

     occupation numbers 
     1.0000   1.0000   1.0027   1.0112   0.9917   0.2663  -0.0023  -0.0001
    -0.0000  -0.0000  -0.0000  -0.0000  -0.0000  -0.0000  -0.0000  -0.0000
    -0.0000  -0.0000  -0.0000

          k = 0.0208 0.4932 0.0000 (148712 PWs)   bands (ev):

   -13.9272 -12.2907  -7.3011  -5.3103  -5.2444  -3.8498  -0.7818   0.2105
     0.7993   1.2986   1.8948   1.9431   1.9570   2.0811   2.0885   2.2125
     2.3708   2.3784   2.7598

     occupation numbers 
     1.0000   1.0000   1.0025   1.0021   0.9908   0.3171  -0.0013  -0.0000
    -0.0000  -0.0000  -0.0000  -0.0000  -0.0000  -0.0000  -0.0000  -0.0000
    -0.0000  -0.0000  -0.0000

          k = 0.0208 0.5172 0.0000 (148751 PWs)   bands (ev):

   -13.8709 -12.3753  -7.3160  -5.2551  -5.2415  -3.9250  -0.6224   0.3345
     0.9194   1.3188   1.7027   2.0555   2.0847   2.1657   2.2271   2.2372
     2.4772   2.5022   2.7683

     occupation numbers 
     1.0000   1.0000   1.0024   0.9928   0.9903   0.3610  -0.0008  -0.0000
    -0.0000  -0.0000  -0.0000  -0.0000  -0.0000  -0.0000  -0.0000  -0.0000
    -0.0000  -0.0000  -0.0000

          k = 0.0208 0.5413 0.0000 (148782 PWs)   bands (ev):

   -13.8293 -12.4359  -7.3261  -5.2401  -5.2141  -3.9795  -0.5019   0.4237
     1.0440   1.3304   1.5228   2.1235   2.2065   2.2329   2.3348   2.3683
     2.5841   2.5843   2.7186

     occupation numbers 
     1.0000   1.0000   1.0024   0.9900   0.9849   0.3937  -0.0005  -0.0000
    -0.0000  -0.0000  -0.0000  -0.0000  -0.0000  -0.0000  -0.0000  -0.0000
    -0.0000  -0.0000  -0.0000

          k = 0.0208 0.5653 0.0000 (148774 PWs)   bands (ev):

   -13.8070 -12.4677  -7.3311  -5.2394  -5.1921  -4.0082  -0.4363   0.4707
     1.1676   1.3356   1.3684   2.1452   2.2421   2.3866   2.4623   2.4899
     2.5503   2.5986   2.6074

     occupation numbers 
     1.0000   1.0000   1.0023   0.9899   0.9804   0.4112  -0.0004  -0.0000
    -0.0000  -0.0000  -0.0000  -0.0000  -0.0000  -0.0000  -0.0000  -0.0000
    -0.0000  -0.0000  -0.0000

          k = 0.0417 0.0722 0.0000 (148480 PWs)   bands (ev):

   -14.8868  -9.8280  -6.6138  -6.3889  -6.2539  -2.6422  -2.5021  -2.0155
    -0.5400   0.3844   0.5599   0.6493   0.7084   0.9326   1.0068   1.3611
     1.4278   1.8016   1.9228

     occupation numbers 
     1.0000   1.0000   1.0141   1.0210   1.0256  -0.0331  -0.0354  -0.0244
    -0.0006  -0.0000  -0.0000  -0.0000  -0.0000  -0.0000  -0.0000  -0.0000
    -0.0000  -0.0000  -0.0000

          k = 0.0417 0.0962 0.0000 (148503 PWs)   bands (ev):

   -14.8676  -9.9256  -6.6439  -6.2996  -6.2347  -2.6471  -2.4291  -2.0706
    -0.5120   0.4063   0.5836   0.6727   0.7324   0.9558   1.0315   1.3839
     1.4563   1.8729   1.9447

     occupation numbers 
     1.0000   1.0000   1.0132   1.0241   1.0263  -0.0329  -0.0352  -0.0263
    -0.0005  -0.0000  -0.0000  -0.0000  -0.0000  -0.0000  -0.0000  -0.0000
    -0.0000  -0.0000  -0.0000

          k = 0.0417 0.1203 0.0000 (148497 PWs)   bands (ev):

   -14.8428 -10.0424  -6.6808  -6.2101  -6.1950  -2.6489  -2.3372  -2.1392
    -0.4767   0.4344   0.6141   0.7028   0.7631   0.9855   1.0630   1.4131
     1.4911   1.9551   1.9726

     occupation numbers 
     1.0000   1.0000   1.0123   1.0271   1.0276  -0.0329  -0.0339  -0.0286
    -0.0004  -0.0000  -0.0000  -0.0000  -0.0000  -0.0000  -0.0000  -0.0000
    -0.0000  -0.0000  -0.0000

          k = 0.0417 0.1443 0.0000 (148509 PWs)   bands (ev):

   -14.8127 -10.1744  -6.7231  -6.1803  -6.0806  -2.6446  -2.2278  -2.2200
    -0.4347   0.4685   0.6514   0.7396   0.8006   1.0217   1.1012   1.4486
     1.5320   2.0062   2.0366

     occupation numbers 
     1.0000   1.0000   1.0112   1.0281   1.0311  -0.0330  -0.0312  -0.0310
    -0.0004  -0.0000  -0.0000  -0.0000  -0.0000  -0.0000  -0.0000  -0.0000
    -0.0000  -0.0000  -0.0000

          k = 0.0417 0.1684 0.0000 (148510 PWs)   bands (ev):

   -14.7773 -10.3177  -6.7697  -6.1452  -5.9618  -2.6309  -2.3114  -2.1026
    -0.3863   0.5085   0.6954   0.7830   0.8448   1.0645   1.1460   1.4902
     1.5788   2.0446   2.1100

     occupation numbers 
     1.0000   1.0000   1.0101   1.0292   1.0340  -0.0334  -0.0333  -0.0274
    -0.0003  -0.0000  -0.0000  -0.0000  -0.0000  -0.0000  -0.0000  -0.0000
    -0.0000  -0.0000  -0.0000

          k = 0.0417 0.1925 0.0000 (148547 PWs)   bands (ev):

   -14.7366 -10.4693  -6.8192  -6.1049  -5.8434  -2.6045  -2.4119  -1.9629
    -0.3316   0.5542   0.7461   0.8330   0.8958   1.1136   1.1974   1.5379
     1.6317   2.0870   2.1775

     occupation numbers 
     1.0000   1.0000   1.0091   1.0304   1.0354  -0.0341  -0.0350  -0.0227
    -0.0003  -0.0000  -0.0000  -0.0000  -0.0000  -0.0000  -0.0000  -0.0000
    -0.0000  -0.0000  -0.0000

          k = 0.0417 0.2165 0.0000 (148566 PWs)   bands (ev):

   -14.6908 -10.6265  -6.8705  -6.0597  -5.7297  -2.5623  -2.5200  -1.8103
    -0.2709   0.6054   0.8037   0.8896   0.9535   1.1691   1.2554   1.5912
     1.6908   2.1308   2.2443

     occupation numbers 
     1.0000   1.0000   1.0080   1.0317   1.0347  -0.0349  -0.0354  -0.0176
    -0.0002  -0.0000  -0.0000  -0.0000  -0.0000  -0.0000  -0.0000  -0.0000
    -0.0000  -0.0000  -0.0000

          k = 0.0417 0.2406 0.0000 (148569 PWs)   bands (ev):

   -14.6401 -10.7871  -6.9225  -6.0096  -5.6244  -2.6342  -2.5016  -1.6463
    -0.2045   0.6617   0.8680   0.9527   1.0178   1.2307   1.3200   1.6495
     1.7560   2.1708   2.3138

     occupation numbers 
     1.0000   1.0000   1.0071   1.0330   1.0317  -0.0333  -0.0354  -0.0129
    -0.0002  -0.0000  -0.0000  -0.0000  -0.0000  -0.0000  -0.0000  -0.0000
    -0.0000  -0.0000  -0.0000

          k = 0.0417 0.2646 0.0000 (148612 PWs)   bands (ev):

[...]
     0.7148   0.9581   1.7969   1.8610   1.9713   1.9862   2.0718   2.2565
     2.3222   2.6811   2.7303

     occupation numbers 
     1.0000   1.0000   1.0007   1.0000   0.4672   0.3088  -0.0329  -0.0000
    -0.0000  -0.0000  -0.0000  -0.0000  -0.0000  -0.0000  -0.0000  -0.0000
    -0.0000  -0.0000  -0.0000

          k = 0.2292 0.4450 0.0000 (148811 PWs)   bands (ev):

   -13.8282 -12.4087  -7.7521  -5.2207  -3.9907  -3.9352  -2.2450   0.6397
     0.8066   1.1785   1.8346   1.9047   1.9854   2.0893   2.1366   2.3746
     2.4320   2.6111   2.7991

     occupation numbers 
     1.0000   1.0000   1.0006   0.9863   0.4005   0.3671  -0.0317  -0.0000
    -0.0000  -0.0000  -0.0000  -0.0000  -0.0000  -0.0000  -0.0000  -0.0000
    -0.0000  -0.0000  -0.0000

          k = 0.2292 0.4691 0.0000 (148859 PWs)   bands (ev):

   -13.7483 -12.5189  -7.7925  -5.1446  -4.0313  -3.9007  -2.1877   0.5923
     0.8887   1.3788   1.6582   2.0207   2.1127   2.2147   2.2598   2.4629
     2.4995   2.5704   2.9227

     occupation numbers 
     1.0000   1.0000   1.0005   0.9698   0.4253   0.3467  -0.0301  -0.0000
    -0.0000  -0.0000  -0.0000  -0.0000  -0.0000  -0.0000  -0.0000  -0.0000
    -0.0000  -0.0000  -0.0000

          k = 0.2292 0.4932 0.0000 (148877 PWs)   bands (ev):

   -13.6711 -12.6206  -7.8252  -5.0710  -4.1209  -3.8302  -2.1260   0.5531
     0.9460   1.4973   1.5846   2.1435   2.2465   2.3242   2.3471   2.4065
     2.6305   2.6943   3.0485

     occupation numbers 
     1.0000   1.0000   1.0005   0.9510   0.4807   0.3059  -0.0281  -0.0000
    -0.0000  -0.0000  -0.0000  -0.0000  -0.0000  -0.0000  -0.0000  -0.0000
    -0.0000  -0.0000  -0.0000

          k = 0.2292 0.5172 0.0000 (148899 PWs)   bands (ev):

   -13.6007 -12.7095  -7.8499  -5.0041  -4.2001  -3.7787  -2.0675   0.5232
     0.9592   1.4522   1.7145   2.2063   2.2715   2.3906   2.4858   2.5393
     2.7659   2.8281   3.0382

     occupation numbers 
     1.0000   1.0000   1.0004   0.9315   0.5299   0.2773  -0.0262  -0.0000
    -0.0000  -0.0000  -0.0000  -0.0000  -0.0000  -0.0000  -0.0000  -0.0000
    -0.0000  -0.0000  -0.0000

          k = 0.2292 0.5413 0.0000 (148870 PWs)   bands (ev):

   -13.5442 -12.7785  -7.8664  -4.9504  -4.2620  -3.7454  -2.0212   0.5030
     0.9349   1.4579   1.8192   2.1032   2.4010   2.5388   2.6294   2.6850
     2.8638   2.9460   2.9610

     occupation numbers 
     1.0000   1.0000   1.0004   0.9140   0.5682   0.2592  -0.0246  -0.0000
    -0.0000  -0.0000  -0.0000  -0.0000  -0.0000  -0.0000  -0.0000  -0.0000
    -0.0000  -0.0000  -0.0000

          k = 0.2292 0.5653 0.0000 (148880 PWs)   bands (ev):

   -13.5116 -12.8173  -7.8748  -4.9193  -4.2972  -3.7291  -1.9956   0.4928
     0.9103   1.4808   1.8782   2.0367   2.5151   2.6940   2.7373   2.8085
     2.8361   2.8558   2.9521

     occupation numbers 
     1.0000   1.0000   1.0004   0.9032   0.5898   0.2506  -0.0238  -0.0000
    -0.0000  -0.0000  -0.0000  -0.0000  -0.0000  -0.0000  -0.0000  -0.0000
    -0.0000  -0.0000  -0.0000

          k = 0.2500 0.4330 0.0000 (148828 PWs)   bands (ev):

   -13.8285 -12.4077  -7.7581  -5.2212  -3.9567  -3.9339  -2.2843   0.6319
     0.8035   1.1862   1.8342   1.9015   1.9821   2.0861   2.1337   2.3715
     2.4313   2.6274   2.7967

     occupation numbers 
     1.0000   1.0000   1.0006   0.9864   0.3799   0.3663  -0.0327  -0.0000
    -0.0000  -0.0000  -0.0000  -0.0000  -0.0000  -0.0000  -0.0000  -0.0000
    -0.0000  -0.0000  -0.0000

          k = 0.2500 0.4571 0.0000 (148864 PWs)   bands (ev):

   -13.7476 -12.5188  -7.8044  -5.1442  -4.0304  -3.8296  -2.2671   0.5768
     0.8817   1.3980   1.6548   2.0146   2.1061   2.2082   2.2549   2.4932
     2.5032   2.5536   2.9171

     occupation numbers 
     1.0000   1.0000   1.0005   0.9697   0.4248   0.3056  -0.0323  -0.0000
    -0.0000  -0.0000  -0.0000  -0.0000  -0.0000  -0.0000  -0.0000  -0.0000
    -0.0000  -0.0000  -0.0000

          k = 0.2500 0.4811 0.0000 (148888 PWs)   bands (ev):

   -13.6669 -12.6246  -7.8428  -5.0677  -4.1231  -3.7218  -2.2423   0.5303
     0.9329   1.5154   1.5942   2.1349   2.2375   2.3374   2.3671   2.3981
     2.6215   2.6776   3.0492

     occupation numbers 
     1.0000   1.0000   1.0004   0.9501   0.4821   0.2467  -0.0316  -0.0000
    -0.0000  -0.0000  -0.0000  -0.0000  -0.0000  -0.0000  -0.0000  -0.0000
    -0.0000  -0.0000  -0.0000

          k = 0.2500 0.5052 0.0000 (148868 PWs)   bands (ev):

   -13.5894 -12.7217  -7.8730  -4.9944  -4.2091  -3.6365  -2.2133   0.4933
     0.9352   1.4616   1.7523   2.2554   2.2610   2.3767   2.4732   2.5229
     2.7553   2.8050   3.0923

     occupation numbers 
     1.0000   1.0000   1.0004   0.9285   0.5355   0.2035  -0.0308  -0.0000
    -0.0000  -0.0000  -0.0000  -0.0000  -0.0000  -0.0000  -0.0000  -0.0000
    -0.0000  -0.0000  -0.0000

          k = 0.2500 0.5292 0.0000 (148863 PWs)   bands (ev):

   -13.5206 -12.8047  -7.8948  -4.9294  -4.2833  -3.5753  -2.1854   0.4666
     0.8952   1.4776   1.8761   2.1433   2.3909   2.5215   2.6149   2.6645
     2.8886   2.9226   3.0241

     occupation numbers 
     1.0000   1.0000   1.0004   0.9068   0.5813   0.1746  -0.0300  -0.0000
    -0.0000  -0.0000  -0.0000  -0.0000  -0.0000  -0.0000  -0.0000  -0.0000
    -0.0000  -0.0000  -0.0000

          k = 0.2500 0.5533 0.0000 (148858 PWs)   bands (ev):

   -13.4699 -12.8639  -7.9079  -4.8816  -4.3366  -3.5387  -2.1650   0.4504
     0.8524   1.5209   1.9567   2.0542   2.5174   2.6731   2.7572   2.8088
     2.8754   2.9771   3.0125

     occupation numbers 
     1.0000   1.0000   1.0003   0.8894   0.6137   0.1582  -0.0294  -0.0000
    -0.0000  -0.0000  -0.0000  -0.0000  -0.0000  -0.0000  -0.0000  -0.0000
    -0.0000  -0.0000  -0.0000

          k = 0.2500 0.5774 0.0000 (148874 PWs)   bands (ev):

   -13.4506 -12.8861  -7.9123  -4.8633  -4.3567  -3.5266  -2.1576   0.4450
     0.8353   1.5434   1.9934   2.0093   2.5937   2.7794   2.8282   2.8325
     2.9158   2.9216   2.9443

     occupation numbers 
     1.0000   1.0000   1.0003   0.8824   0.6258   0.1529  -0.0291  -0.0000
    -0.0000  -0.0000  -0.0000  -0.0000  -0.0000  -0.0000  -0.0000  -0.0000
    -0.0000  -0.0000  -0.0000

          k = 0.2708 0.4691 0.0000 (148862 PWs)   bands (ev):

   -13.6655 -12.6259  -7.8487  -5.0666  -4.1238  -3.6813  -2.2856   0.5226
     0.9286   1.5205   1.5980   2.1320   2.2343   2.3342   2.3811   2.3992
     2.6184   2.6709   3.0361

     occupation numbers 
     1.0000   1.0000   1.0004   0.9498   0.4825   0.2258  -0.0328  -0.0000
    -0.0000  -0.0000  -0.0000  -0.0000  -0.0000  -0.0000  -0.0000  -0.0000
    -0.0000  -0.0000  -0.0000

          k = 0.2708 0.4932 0.0000 (148900 PWs)   bands (ev):

   -13.5837 -12.7279  -7.8847  -4.9895  -4.2137  -3.5517  -2.3001   0.4783
     0.9231   1.4652   1.7713   2.2557   2.2887   2.3693   2.4669   2.5135
     2.7497   2.7905   3.0585

     occupation numbers 
     1.0000   1.0000   1.0004   0.9269   0.5384   0.1639  -0.0331  -0.0000
    -0.0000  -0.0000  -0.0000  -0.0000  -0.0000  -0.0000  -0.0000  -0.0000
    -0.0000  -0.0000  -0.0000

          k = 0.2708 0.5172 0.0000 (148896 PWs)   bands (ev):

   -13.5054 -12.8214  -7.9120  -4.9161  -4.2967  -3.4469  -2.3106   0.4446
     0.8712   1.4876   1.9097   2.1798   2.3843   2.5109   2.6059   2.6504
     2.8852   2.8891   3.0734

     occupation numbers 
     1.0000   1.0000   1.0003   0.9021   0.5895   0.1201  -0.0333  -0.0000
    -0.0000  -0.0000  -0.0000  -0.0000  -0.0000  -0.0000  -0.0000  -0.0000
    -0.0000  -0.0000  -0.0000

          k = 0.2708 0.5413 0.0000 (148901 PWs)   bands (ev):

   -13.4378 -12.8992  -7.9303  -4.8528  -4.3665  -3.3729  -2.3173   0.4218
     0.8125   1.5469   1.9992   2.0891   2.5141   2.6587   2.7498   2.7846
     2.9348   2.9728   3.0507

     occupation numbers 
     1.0000   1.0000   1.0003   0.8783   0.6316   0.0927  -0.0335  -0.0000
    -0.0000  -0.0000  -0.0000  -0.0000  -0.0000  -0.0000  -0.0000  -0.0000
    -0.0000  -0.0000  -0.0000

          k = 0.2708 0.5653 0.0000 (148890 PWs)   bands (ev):

   -13.3951 -12.9471  -7.9395  -4.8128  -4.4097  -3.3345  -2.3205   0.4104
     0.7771   1.5982   1.9930   2.0790   2.6289   2.8094   2.8486   2.8723
     2.9211   2.9754   3.0048

     occupation numbers 
     1.0000   1.0000   1.0003   0.8621   0.6572   0.0796  -0.0335  -0.0000
    -0.0000  -0.0000  -0.0000  -0.0000  -0.0000  -0.0000  -0.0000  -0.0000
    -0.0000  -0.0000  -0.0000

          k = 0.2917 0.5052 0.0000 (148912 PWs)   bands (ev):

   -13.5002 -12.8271  -7.9178  -4.9115  -4.3013  -3.3966  -2.3598   0.4372
     0.8631   1.4906   1.9209   2.1948   2.3820   2.5073   2.6029   2.6451
     2.8752   2.8833   3.0618

     occupation numbers 
     1.0000   1.0000   1.0003   0.9004   0.5923   0.1011  -0.0343  -0.0000
    -0.0000  -0.0000  -0.0000  -0.0000  -0.0000  -0.0000  -0.0000  -0.0000
    -0.0000  -0.0000  -0.0000

          k = 0.2917 0.5292 0.0000 (148899 PWs)   bands (ev):

   -13.4200 -12.9187  -7.9416  -4.8369  -4.3828  -3.2658  -2.4176   0.4075
     0.7923   1.5592   2.0180   2.1150   2.5116   2.6512   2.7448   2.7680
     2.9054   3.0176   3.0829

     occupation numbers 
     1.0000   1.0000   1.0003   0.8720   0.6414   0.0583  -0.0351  -0.0000
    -0.0000  -0.0000  -0.0000  -0.0000  -0.0000  -0.0000  -0.0000  -0.0000
    -0.0000  -0.0000  -0.0000

          k = 0.2917 0.5533 0.0000 (148889 PWs)   bands (ev):

   -13.3527 -12.9928  -7.9560  -4.7744  -4.4494  -3.1739  -2.4635   0.3895
     0.7408   1.6352   1.9861   2.1315   2.6381   2.7896   2.8354   2.8875
     2.9656   2.9842   3.1346

     occupation numbers 
     1.0000   1.0000   1.0003   0.8459   0.6802   0.0337  -0.0354  -0.0000
    -0.0000  -0.0000  -0.0000  -0.0000  -0.0000  -0.0000  -0.0000  -0.0000
    -0.0000  -0.0000  -0.0000

          k = 0.2917 0.5774 0.0000 (148888 PWs)   bands (ev):

   -13.3229 -13.0249  -7.9608  -4.7468  -4.4785  -3.1398  -2.4820   0.3835
     0.7224   1.6739   1.9484   2.1519   2.7169   2.8172   2.8782   2.9644
     2.9724   3.0470   3.0571

     occupation numbers 
     1.0000   1.0000   1.0003   0.8337   0.6968   0.0257  -0.0355  -0.0000
    -0.0000  -0.0000  -0.0000  -0.0000  -0.0000  -0.0000  -0.0000  -0.0000
    -0.0000  -0.0000  -0.0000

          k = 0.3125 0.5413 0.0000 (148900 PWs)   bands (ev):

   -13.3358 -13.0107  -7.9616  -4.7593  -4.4650  -3.1019  -2.5297   0.3825
     0.7285   1.6481   1.9846   2.1492   2.6396   2.7789   2.8244   2.8890
     2.9797   3.0115   3.1507

     occupation numbers 
     1.0000   1.0000   1.0003   0.8393   0.6891   0.0175  -0.0353  -0.0000
    -0.0000  -0.0000  -0.0000  -0.0000  -0.0000  -0.0000  -0.0000  -0.0000
    -0.0000  -0.0000  -0.0000

          k = 0.3125 0.5653 0.0000 (148886 PWs)   bands (ev):

   -13.2654 -13.0852  -7.9716  -4.6947  -4.5319  -2.9811  -2.6238   0.3700
     0.6939   1.7296   1.9101   2.1903   2.7565   2.7860   2.9222   2.9616
     3.0380   3.1153   3.1271

     occupation numbers 
     1.0000   1.0000   1.0003   0.8097   0.7265  -0.0040  -0.0336  -0.0000
    -0.0000  -0.0000  -0.0000  -0.0000  -0.0000  -0.0000  -0.0000  -0.0000
    -0.0000  -0.0000  -0.0000

          k = 0.3333 0.5774 0.0000 (148932 PWs)   bands (ev):

   -13.1761 -13.1761  -7.9768  -4.6138  -4.6138  -2.7970  -2.7970   0.3635
     0.6777   1.8229   1.8229   2.2111   2.7738   2.8568   2.8568   3.1167
     3.1169   3.1232   3.1363

     occupation numbers 
     1.0000   1.0000   1.0003   0.7697   0.7697  -0.0247  -0.0247  -0.0000
    -0.0000  -0.0000  -0.0000  -0.0000  -0.0000  -0.0000  -0.0000  -0.0000
    -0.0000  -0.0000  -0.0000

     the Fermi energy is    -4.1519 ev

!    total energy              =    -695.23746001 Ry
     Harris-Foulkes estimate   =    -695.23746001 Ry
     estimated scf accuracy    <          4.3E-09 Ry

     total all-electron energy =    -25926.332370 Ry

     The total energy is the sum of the following terms:

     one-electron contribution =    -224.15178737 Ry
     hartree contribution      =     113.53155791 Ry
     xc contribution           =     -24.20544576 Ry
     ewald contribution        =      96.22329396 Ry
     one-center paw contrib.   =    -656.63876780 Ry
      -> PAW hartree energy AE =       6.62598527 Ry
      -> PAW hartree energy PS =      -6.62965040 Ry
      -> PAW xc energy AE      =    -340.02712093 Ry
      -> PAW xc energy PS      =      11.71140216 Ry
      -> total E_H with PAW    =     113.52789278 Ry
      -> total E_XC with PAW   =    -352.52116452 Ry
     smearing contrib. (-TS)   =       0.00368906 Ry

     convergence has been achieved in   7 iterations

     negative rho (up, down):  7.034E-05 0.000E+00

     Forces acting on atoms (cartesian axes, Ry/au):

     atom    1 type  1   force =     0.00000000    0.00000000    0.00000000
     atom    2 type  1   force =     0.00000000    0.00000000    0.00000000
     The non-local contrib.  to forces
     atom    1 type  1   force =     0.00000000   -0.00000000    0.00000000
     atom    2 type  1   force =     0.00000000    0.00000000    0.00000000
     The ionic contribution  to forces
     atom    1 type  1   force =     0.00000000   -0.00000000   -0.00000000
     atom    2 type  1   force =    -0.00000000    0.00000000    0.00000000
     The local contribution  to forces
     atom    1 type  1   force =     0.00000000    0.00000000   -0.00000000
     atom    2 type  1   force =     0.00000000    0.00000000   -0.00000000
     The core correction contribution to forces
     atom    1 type  1   force =    -0.00000000   -0.00000000    0.00000000
     atom    2 type  1   force =     0.00000000   -0.00000000    0.00000000
     The Hubbard contrib.    to forces
     atom    1 type  1   force =     0.00000000    0.00000000    0.00000000
     atom    2 type  1   force =     0.00000000    0.00000000    0.00000000
     The SCF correction term to forces
     atom    1 type  1   force =     0.00000000   -0.00000000   -0.00000000
     atom    2 type  1   force =    -0.00000000    0.00000000   -0.00000000

     Total force =     0.000000     Total SCF correction =     0.000000


     Computing stress (Cartesian axis) and pressure


     negative rho (up, down):  7.034E-05 0.000E+00
          total   stress  (Ry/bohr**3)                   (kbar)     P=       -0.86
  -0.00000878   0.00000000   0.00000000           -1.29        0.00        0.00
   0.00000000  -0.00000878   0.00000000            0.00       -1.29        0.00
  -0.00000000  -0.00000000   0.00000000           -0.00       -0.00        0.00

     kinetic stress (kbar)     85.98     -0.00      0.00
                               -0.00     85.98      0.00
                               -0.00      0.00    101.82

     local   stress (kbar)  -4451.14      0.00      0.00
                                0.00  -4451.14     -0.00
                                0.00     -0.00   4420.50

     nonloc. stress (kbar)    114.91      0.00      0.00
                                0.00    114.91      0.00
                                0.00      0.00    110.58

     hartree stress (kbar)   2164.31      0.00     -0.00
                                0.00   2164.31     -0.00
                               -0.00     -0.00  -2141.03

     exc-cor stress (kbar)    302.81     -0.00     -0.00
                               -0.00    302.81     -0.00
                               -0.00     -0.00    301.70

     corecor stress (kbar)   -361.49      0.00     -0.00
                                0.00   -361.49      0.00
                               -0.00      0.00   -361.00

     ewald   stress (kbar)   2143.32     -0.00      0.00
                               -0.00   2143.32      0.00
                                0.00      0.00  -2432.56

     hubbard stress (kbar)      0.00      0.00      0.00
                                0.00      0.00      0.00
                                0.00      0.00      0.00

     london  stress (kbar)      0.00      0.00      0.00
                                0.00      0.00      0.00
                                0.00      0.00      0.00

     DFT-D3  stress (kbar)      0.00      0.00      0.00
                                0.00      0.00      0.00
                                0.00      0.00      0.00

     XDM     stress (kbar)      0.00      0.00      0.00
                                0.00      0.00      0.00
                                0.00      0.00      0.00

     dft-nl  stress (kbar)      0.00      0.00      0.00
                                0.00      0.00      0.00
                                0.00      0.00      0.00

     TS-vdW  stress (kbar)      0.00      0.00      0.00
                                0.00      0.00      0.00
                                0.00      0.00      0.00



     Writing output data file ./outdir/antimonene_flat.save/
 
     init_run     :    448.86s CPU    463.69s WALL (       1 calls)
     electrons    :  13718.24s CPU  27677.79s WALL (       1 calls)
     forces       :     65.66s CPU    924.41s WALL (       1 calls)
     stress       :    259.67s CPU   1277.87s WALL (       1 calls)

     Called by init_run:
     wfcinit      :    442.36s CPU    455.73s WALL (       1 calls)
     wfcinit:atom :      2.75s CPU      3.65s WALL (     217 calls)
     wfcinit:wfcr :    426.33s CPU    431.17s WALL (     217 calls)
     potinit      :      1.52s CPU      1.69s WALL (       1 calls)
     hinit0       :      0.78s CPU      0.85s WALL (       1 calls)

     Called by electrons:
     c_bands      :  11435.76s CPU  17626.78s WALL (       8 calls)
     sum_band     :   2251.51s CPU   9501.52s WALL (       8 calls)
     v_of_rho     :     10.04s CPU    125.22s WALL (       8 calls)
     v_h          :      1.00s CPU      1.27s WALL (       8 calls)
     v_xc         :     11.26s CPU    145.58s WALL (      10 calls)
     newd         :     17.53s CPU    163.13s WALL (       8 calls)
     PAW_pot      :      2.26s CPU     15.60s WALL (       8 calls)
     mix_rho      :      2.53s CPU    139.48s WALL (       8 calls)

     Called by c_bands:
     init_us_2    :    166.27s CPU    462.15s WALL (    4123 calls)
     cegterg      :  10966.55s CPU  11257.76s WALL (    1736 calls)

     Called by sum_band:
     sum_band:bec :      0.04s CPU      2.76s WALL (    1736 calls)
     addusdens    :     19.54s CPU    616.31s WALL (       8 calls)

     Called by *egterg:
     h_psi        :  10518.01s CPU  10597.45s WALL (   10124 calls)
     s_psi        :    114.24s CPU    116.50s WALL (   10124 calls)
     g_psi        :     27.13s CPU     27.22s WALL (    8171 calls)
     cdiaghg      :      5.92s CPU     53.87s WALL (    9690 calls)
     cegterg:over :    318.40s CPU    332.75s WALL (    8171 calls)
     cegterg:upda :    198.43s CPU    278.75s WALL (    8171 calls)
     cegterg:last :     82.17s CPU     82.31s WALL (    2186 calls)

     Called by h_psi:
     h_psi:calbec :    122.83s CPU    137.78s WALL (   10124 calls)
     vloc_psi     :  10247.04s CPU  10281.68s WALL (   10124 calls)
     add_vuspsi   :    114.64s CPU    115.03s WALL (   10124 calls)

     General routines
     calbec       :    179.59s CPU    196.88s WALL (   12945 calls)
     fft          :     10.04s CPU     20.36s WALL (     114 calls)
     ffts         :      1.07s CPU      9.00s WALL (       8 calls)
     fftw         :   9715.56s CPU   9748.96s WALL (  243078 calls)
 
     Parallel routines
     fft_scatt_xy :   2310.03s CPU   2317.42s WALL (  243200 calls)
     fft_scatt_yz :   2315.69s CPU   2340.54s WALL (  243200 calls)

     PAW routines
     PAW_pot      :      2.26s CPU     15.60s WALL (       8 calls)
     PAW_symme    :      0.08s CPU      0.66s WALL (      16 calls)
 
     PWSCF        :      4h 2m CPU      8h52m WALL

 
   This run was terminated on:   4:56:21  29Dec2019            

=------------------------------------------------------------------------------=
   JOB DONE.
=------------------------------------------------------------------------------=
